       N       E                     dE             d eps       ncg     rms          rms(c)
DAV:   1     0.332954564338E+04    0.33295E+04   -0.49882E+05  2568   0.724E+02
DAV:   2    -0.238823592752E+04   -0.57178E+04   -0.54224E+04  3036   0.149E+02
DAV:   3    -0.279944839529E+04   -0.41121E+03   -0.40394E+03  3088   0.365E+01
DAV:   4    -0.281067936951E+04   -0.11231E+02   -0.11149E+02  3128   0.690E+00
DAV:   5    -0.281099048532E+04   -0.31112E+00   -0.31015E+00  3096   0.107E+00    0.485E+01
DAV:   6    -0.277966028682E+04    0.31330E+02   -0.18942E+01  2896   0.244E+00    0.289E+01
DAV:   7    -0.276508398834E+04    0.14576E+02   -0.39147E+01  2784   0.360E+00    0.258E+00
DAV:   8    -0.276538395967E+04   -0.29997E+00   -0.20721E+00  2912   0.929E-01    0.684E-01
DAV:   9    -0.276538291320E+04    0.10465E-02   -0.83273E-02  3128   0.188E-01    0.263E-01
DAV:  10    -0.276538901681E+04   -0.61036E-02   -0.12655E-02  2920   0.773E-02    0.822E-02
DAV:  11    -0.276538903668E+04   -0.19869E-04   -0.43069E-04  3072   0.124E-02    0.906E-03
DAV:  12    -0.276538903605E+04    0.62630E-06   -0.28747E-05  3056   0.400E-03    0.392E-03
DAV:  13    -0.276538903283E+04    0.32253E-05   -0.69089E-07  1928   0.660E-04    0.468E-04
DAV:  14    -0.276538903401E+04   -0.11819E-05   -0.13766E-07  1688   0.262E-04    0.189E-04
DAV:  15    -0.276538903381E+04    0.20417E-06   -0.34324E-08  1656   0.132E-04
   1 F= -.27653890E+04 E0= -.27654122E+04  d E =0.693502E-01
