 vasp.5.4.4.18Apr17-6-g9f103f2a35 (build Mar 07 2019 14:32:23) complex          
  
 executed on             LinuxIFC date 2019.03.07  15:48:34
 running on    4 total cores
 distrk:  each k-point on    4 cores,    1 groups
 distr:  one band on NCORES_PER_BAND=   1 cores,    4 groups


--------------------------------------------------------------------------------------------------------


 INCAR:
 POTCAR:   PAW_GGA Si 05Jan2001                   
 POTCAR:   PAW_GGA Si 05Jan2001                   
   VRHFIN =Si: s2p2                                                             
   LEXCH  = 91                                                                  
   EATOM  =   103.3076 eV,    7.5929 Ry                                         
                                                                                
   TITEL  = PAW_GGA Si 05Jan2001                                                
   LULTRA =        F    use ultrasoft PP ?                                      
   IUNSCR =        1    unscreen: 0-lin 1-nonlin 2-no                           
   RPACOR =    1.500    partial core radius                                     
   POMASS =   28.085; ZVAL   =    4.000    mass and valenz                      
   RCORE  =    1.900    outmost cutoff radius                                   
   RWIGS  =    2.480; RWIGS  =    1.312    wigner-seitz radius (au A)           
   ENMAX  =  245.435; ENMIN  =  184.076 eV                                      
   ICORE  =        2    local potential                                         
   LCOR   =        T    correct aug charges                                     
   LPAW   =        T    paw PP                                                  
   EAUG   =  322.069                                                            
   DEXC   =    -.001                                                            
   RMAX   =    2.943    core radius for proj-oper                               
   RAUG   =    1.300    factor for augmentation sphere                          
   RDEP   =    1.993    core radius for depl-charge                             
   QCUT   =   -4.247; QGAM   =    8.494    optimization parameters              
                                                                                
   Description                                                                  
     l     E      TYP  RCUT    TYP  RCUT                                        
     0   .000     23  1.900                                                     
     0   .000     23  1.900                                                     
     1   .000     23  1.900                                                     
     1   .000     23  1.900                                                     
     2   .000      7  1.900                                                     
  local pseudopotential read in
  partial core-charges read in
  atomic valenz-charges read in
  non local Contribution for L=           0  read in
    real space projection operators read in
  non local Contribution for L=           0  read in
    real space projection operators read in
  non local Contribution for L=           1  read in
    real space projection operators read in
  non local Contribution for L=           1  read in
    real space projection operators read in
    PAW grid and wavefunctions read in
 
   number of l-projection  operators is LMAX  =           4
   number of lm-projection operators is LMMAX =           8
 
 Optimization of the real space projectors (new method)

 maximal supplied QI-value         = 19.84
 optimisation between [QCUT,QGAM] = [  7.94, 15.87] = [ 17.64, 70.56] Ry 
 Optimized for a Real-space Cutoff    1.57 Angstroem

   l    n(q)    QCUT    max X(q) W(low)/X(q) W(high)/X(q)  e(spline) 
   0      7     7.937     8.672    0.28E-04    0.22E-04    0.12E-07
   0      7     7.937   105.657    0.15E-03    0.37E-03    0.13E-06
   1      7     7.937     5.870    0.16E-04    0.48E-04    0.52E-07
   1      7     7.937    73.136    0.41E-03    0.66E-03    0.13E-06
 PAW_GGA Si 05Jan2001                   :
 energy of atom  1       EATOM= -103.3076
 kinetic energy error for atom=    0.0057 (will be added to EATOM!!)
 
 
 POSCAR: Si                                      
  positions in direct lattice
  No initial velocities read in
 exchange correlation table for  LEXCH =        7
   RHO(1)=    0.500       N(1)  =     2000
   RHO(2)=  100.500       N(2)  =     4000
 


--------------------------------------------------------------------------------------------------------


 ion  position               nearest neighbor table
   1  0.000  0.000  0.000-   2 2.35  16 2.35 114 2.35 386 2.35
   2  0.062  0.031  0.031-   1 2.35   3 2.35  17 2.35 129 2.35
   3  0.000  0.000  0.125-   2 2.35   4 2.35 116 2.35 388 2.35
   4  0.062  0.031  0.156-   3 2.35   5 2.35  19 2.35 131 2.35
   5  0.000  0.000  0.250-   4 2.35   6 2.35 118 2.35 390 2.35
   6  0.062  0.031  0.281-   5 2.35   7 2.35  21 2.35 133 2.35
   7  0.000  0.000  0.375-   6 2.35   8 2.35 120 2.35 392 2.35
   8  0.062  0.031  0.406-   7 2.35   9 2.35  23 2.35 135 2.35
   9  0.000  0.000  0.500-   8 2.35  10 2.35 122 2.35 394 2.35
  10  0.062  0.031  0.531-   9 2.35  11 2.35  25 2.35 137 2.35
  11  0.000  0.000  0.625-  10 2.35  12 2.35 124 2.35 396 2.35
  12  0.062  0.031  0.656-  11 2.35  13 2.35  27 2.35 139 2.35
  13  0.000  0.000  0.750-  12 2.35  14 2.35 126 2.35 398 2.35
  14  0.062  0.031  0.781-  13 2.35  15 2.35  29 2.35 141 2.35
  15  0.000  0.000  0.875-  14 2.35  16 2.35 128 2.35 400 2.35
  16  0.062  0.031  0.906-   1 2.35  15 2.35  31 2.35 143 2.35
  17  0.000  0.125  0.000-   2 2.35  18 2.35  32 2.35 402 2.35
  18  0.062  0.156  0.031-  17 2.35  19 2.35  33 2.35 145 2.35
  19  0.000  0.125  0.125-   4 2.35  18 2.35  20 2.35 404 2.35
  20  0.062  0.156  0.156-  19 2.35  21 2.35  35 2.35 147 2.35
  21  0.000  0.125  0.250-   6 2.35  20 2.35  22 2.35 406 2.35
  22  0.062  0.156  0.281-  21 2.35  23 2.35  37 2.35 149 2.35
  23  0.000  0.125  0.375-   8 2.35  22 2.35  24 2.35 408 2.35
  24  0.062  0.156  0.406-  23 2.35  25 2.35  39 2.35 151 2.35
  25  0.000  0.125  0.500-  10 2.35  24 2.35  26 2.35 410 2.35
  26  0.062  0.156  0.531-  25 2.35  27 2.35  41 2.35 153 2.35
  27  0.000  0.125  0.625-  12 2.35  26 2.35  28 2.35 412 2.35
  28  0.062  0.156  0.656-  27 2.35  29 2.35  43 2.35 155 2.35
  29  0.000  0.125  0.750-  14 2.35  28 2.35  30 2.35 414 2.35
  30  0.062  0.156  0.781-  29 2.35  31 2.35  45 2.35 157 2.35
  31  0.000  0.125  0.875-  16 2.35  30 2.35  32 2.35 416 2.35
  32  0.062  0.156  0.906-  17 2.35  31 2.35  47 2.35 159 2.35
  33  0.000  0.250  0.000-  18 2.35  34 2.35  48 2.35 418 2.35
  34  0.062  0.281  0.031-  33 2.35  35 2.35  49 2.35 161 2.35
  35  0.000  0.250  0.125-  20 2.35  34 2.35  36 2.35 420 2.35
  36  0.062  0.281  0.156-  35 2.35  37 2.35  51 2.35 163 2.35
  37  0.000  0.250  0.250-  22 2.35  36 2.35  38 2.35 422 2.35
  38  0.062  0.281  0.281-  37 2.35  39 2.35  53 2.35 165 2.35
  39  0.000  0.250  0.375-  24 2.35  38 2.35  40 2.35 424 2.35
  40  0.062  0.281  0.406-  39 2.35  41 2.35  55 2.35 167 2.35
  41  0.000  0.250  0.500-  26 2.35  40 2.35  42 2.35 426 2.35
  42  0.062  0.281  0.531-  41 2.35  43 2.35  57 2.35 169 2.35
  43  0.000  0.250  0.625-  28 2.35  42 2.35  44 2.35 428 2.35
  44  0.062  0.281  0.656-  43 2.35  45 2.35  59 2.35 171 2.35
  45  0.000  0.250  0.750-  30 2.35  44 2.35  46 2.35 430 2.35
  46  0.062  0.281  0.781-  45 2.35  47 2.35  61 2.35 173 2.35
  47  0.000  0.250  0.875-  32 2.35  46 2.35  48 2.35 432 2.35
  48  0.062  0.281  0.906-  33 2.35  47 2.35  63 2.35 175 2.35
  49  0.000  0.375  0.000-  34 2.35  50 2.35  64 2.35 434 2.35
  50  0.062  0.406  0.031-  49 2.35  51 2.35  65 2.35 177 2.35
  51  0.000  0.375  0.125-  36 2.35  50 2.35  52 2.35 436 2.35
  52  0.062  0.406  0.156-  51 2.35  53 2.35  67 2.35 179 2.35
  53  0.000  0.375  0.250-  38 2.35  52 2.35  54 2.35 438 2.35
  54  0.062  0.406  0.281-  53 2.35  55 2.35  69 2.35 181 2.35
  55  0.000  0.375  0.375-  40 2.35  54 2.35  56 2.35 440 2.35
  56  0.062  0.406  0.406-  55 2.35  57 2.35  71 2.35 183 2.35
  57  0.000  0.375  0.500-  42 2.35  56 2.35  58 2.35 442 2.35
  58  0.062  0.406  0.531-  57 2.35  59 2.35  73 2.35 185 2.35
  59  0.000  0.375  0.625-  44 2.35  58 2.35  60 2.35 444 2.35
  60  0.062  0.406  0.656-  59 2.35  61 2.35  75 2.35 187 2.35
  61  0.000  0.375  0.750-  46 2.35  60 2.35  62 2.35 446 2.35
  62  0.062  0.406  0.781-  61 2.35  63 2.35  77 2.35 189 2.35
  63  0.000  0.375  0.875-  48 2.35  62 2.35  64 2.35 448 2.35
  64  0.062  0.406  0.906-  49 2.35  63 2.35  79 2.35 191 2.35
  65  0.000  0.500  0.000-  50 2.35  66 2.35  80 2.35 450 2.35
  66  0.062  0.531  0.031-  65 2.35  67 2.35  81 2.35 193 2.35
  67  0.000  0.500  0.125-  52 2.35  66 2.35  68 2.35 452 2.35
  68  0.062  0.531  0.156-  67 2.35  69 2.35  83 2.35 195 2.35
  69  0.000  0.500  0.250-  54 2.35  68 2.35  70 2.35 454 2.35
  70  0.062  0.531  0.281-  69 2.35  71 2.35  85 2.35 197 2.35
  71  0.000  0.500  0.375-  56 2.35  70 2.35  72 2.35 456 2.35
  72  0.062  0.531  0.406-  71 2.35  73 2.35  87 2.35 199 2.35
  73  0.000  0.500  0.500-  58 2.35  72 2.35  74 2.35 458 2.35
  74  0.062  0.531  0.531-  73 2.35  75 2.35  89 2.35 201 2.35
  75  0.000  0.500  0.625-  60 2.35  74 2.35  76 2.35 460 2.35
  76  0.062  0.531  0.656-  75 2.35  77 2.35  91 2.35 203 2.35
  77  0.000  0.500  0.750-  62 2.35  76 2.35  78 2.35 462 2.35
  78  0.062  0.531  0.781-  77 2.35  79 2.35  93 2.35 205 2.35
  79  0.000  0.500  0.875-  64 2.35  78 2.35  80 2.35 464 2.35
  80  0.062  0.531  0.906-  65 2.35  79 2.35  95 2.35 207 2.35
  81  0.000  0.625  0.000-  66 2.35  82 2.35  96 2.35 466 2.35
  82  0.062  0.656  0.031-  81 2.35  83 2.35  97 2.35 209 2.35
  83  0.000  0.625  0.125-  68 2.35  82 2.35  84 2.35 468 2.35
  84  0.062  0.656  0.156-  83 2.35  85 2.35  99 2.35 211 2.35
  85  0.000  0.625  0.250-  70 2.35  84 2.35  86 2.35 470 2.35
  86  0.062  0.656  0.281-  85 2.35  87 2.35 101 2.35 213 2.35
  87  0.000  0.625  0.375-  72 2.35  86 2.35  88 2.35 472 2.35
  88  0.062  0.656  0.406-  87 2.35  89 2.35 103 2.35 215 2.35
  89  0.000  0.625  0.500-  74 2.35  88 2.35  90 2.35 474 2.35
  90  0.062  0.656  0.531-  89 2.35  91 2.35 105 2.35 217 2.35
  91  0.000  0.625  0.625-  76 2.35  90 2.35  92 2.35 476 2.35
  92  0.062  0.656  0.656-  91 2.35  93 2.35 107 2.35 219 2.35
  93  0.000  0.625  0.750-  78 2.35  92 2.35  94 2.35 478 2.35
  94  0.062  0.656  0.781-  93 2.35  95 2.35 109 2.35 221 2.35
  95  0.000  0.625  0.875-  80 2.35  94 2.35  96 2.35 480 2.35
  96  0.062  0.656  0.906-  81 2.35  95 2.35 111 2.35 223 2.35
  97  0.000  0.750  0.000-  82 2.35  98 2.35 112 2.35 482 2.35
  98  0.062  0.781  0.031-  97 2.35  99 2.35 113 2.35 225 2.35
  99  0.000  0.750  0.125-  84 2.35  98 2.35 100 2.35 484 2.35
 100  0.062  0.781  0.156-  99 2.35 101 2.35 115 2.35 227 2.35
 101  0.000  0.750  0.250-  86 2.35 100 2.35 102 2.35 486 2.35
 102  0.062  0.781  0.281- 101 2.35 103 2.35 117 2.35 229 2.35
 103  0.000  0.750  0.375-  88 2.35 102 2.35 104 2.35 488 2.35
 104  0.062  0.781  0.406- 103 2.35 105 2.35 119 2.35 231 2.35
 105  0.000  0.750  0.500-  90 2.35 104 2.35 106 2.35 490 2.35
 106  0.062  0.781  0.531- 105 2.35 107 2.35 121 2.35 233 2.35
 107  0.000  0.750  0.625-  92 2.35 106 2.35 108 2.35 492 2.35
 108  0.062  0.781  0.656- 107 2.35 109 2.35 123 2.35 235 2.35
 109  0.000  0.750  0.750-  94 2.35 108 2.35 110 2.35 494 2.35
 110  0.062  0.781  0.781- 109 2.35 111 2.35 125 2.35 237 2.35
 111  0.000  0.750  0.875-  96 2.35 110 2.35 112 2.35 496 2.35
 112  0.062  0.781  0.906-  97 2.35 111 2.35 127 2.35 239 2.35
 113  0.000  0.875  0.000-  98 2.35 114 2.35 128 2.35 498 2.35
 114  0.062  0.906  0.031-   1 2.35 113 2.35 115 2.35 241 2.35
 115  0.000  0.875  0.125- 100 2.35 114 2.35 116 2.35 500 2.35
 116  0.062  0.906  0.156-   3 2.35 115 2.35 117 2.35 243 2.35
 117  0.000  0.875  0.250- 102 2.35 116 2.35 118 2.35 502 2.35
 118  0.062  0.906  0.281-   5 2.35 117 2.35 119 2.35 245 2.35
 119  0.000  0.875  0.375- 104 2.35 118 2.35 120 2.35 504 2.35
 120  0.062  0.906  0.406-   7 2.35 119 2.35 121 2.35 247 2.35
 121  0.000  0.875  0.500- 106 2.35 120 2.35 122 2.35 506 2.35
 122  0.062  0.906  0.531-   9 2.35 121 2.35 123 2.35 249 2.35
 123  0.000  0.875  0.625- 108 2.35 122 2.35 124 2.35 508 2.35
 124  0.062  0.906  0.656-  11 2.35 123 2.35 125 2.35 251 2.35
 125  0.000  0.875  0.750- 110 2.35 124 2.35 126 2.35 510 2.35
 126  0.062  0.906  0.781-  13 2.35 125 2.35 127 2.35 253 2.35
 127  0.000  0.875  0.875- 112 2.35 126 2.35 128 2.35 512 2.35
 128  0.062  0.906  0.906-  15 2.35 113 2.35 127 2.35 255 2.35
 129  0.250  0.000  0.000-   2 2.35 130 2.35 144 2.35 242 2.35
 130  0.312  0.031  0.031- 129 2.35 131 2.35 145 2.35 257 2.35
 131  0.250  0.000  0.125-   4 2.35 130 2.35 132 2.35 244 2.35
 132  0.312  0.031  0.156- 131 2.35 133 2.35 147 2.35 259 2.35
 133  0.250  0.000  0.250-   6 2.35 132 2.35 134 2.35 246 2.35
 134  0.312  0.031  0.281- 133 2.35 135 2.35 149 2.35 261 2.35
 135  0.250  0.000  0.375-   8 2.35 134 2.35 136 2.35 248 2.35
 136  0.312  0.031  0.406- 135 2.35 137 2.35 151 2.35 263 2.35
 137  0.250  0.000  0.500-  10 2.35 136 2.35 138 2.35 250 2.35
 138  0.312  0.031  0.531- 137 2.35 139 2.35 153 2.35 265 2.35
 139  0.250  0.000  0.625-  12 2.35 138 2.35 140 2.35 252 2.35
 140  0.312  0.031  0.656- 139 2.35 141 2.35 155 2.35 267 2.35
 141  0.250  0.000  0.750-  14 2.35 140 2.35 142 2.35 254 2.35
 142  0.312  0.031  0.781- 141 2.35 143 2.35 157 2.35 269 2.35
 143  0.250  0.000  0.875-  16 2.35 142 2.35 144 2.35 256 2.35
 144  0.312  0.031  0.906- 129 2.35 143 2.35 159 2.35 271 2.35
 145  0.250  0.125  0.000-  18 2.35 130 2.35 146 2.35 160 2.35
 146  0.312  0.156  0.031- 145 2.35 147 2.35 161 2.35 273 2.35
 147  0.250  0.125  0.125-  20 2.35 132 2.35 146 2.35 148 2.35
 148  0.312  0.156  0.156- 147 2.35 149 2.35 163 2.35 275 2.35
 149  0.250  0.125  0.250-  22 2.35 134 2.35 148 2.35 150 2.35
 150  0.312  0.156  0.281- 149 2.35 151 2.35 165 2.35 277 2.35
 151  0.250  0.125  0.375-  24 2.35 136 2.35 150 2.35 152 2.35
 152  0.312  0.156  0.406- 151 2.35 153 2.35 167 2.35 279 2.35
 153  0.250  0.125  0.500-  26 2.35 138 2.35 152 2.35 154 2.35
 154  0.312  0.156  0.531- 153 2.35 155 2.35 169 2.35 281 2.35
 155  0.250  0.125  0.625-  28 2.35 140 2.35 154 2.35 156 2.35
 156  0.312  0.156  0.656- 155 2.35 157 2.35 171 2.35 283 2.35
 157  0.250  0.125  0.750-  30 2.35 142 2.35 156 2.35 158 2.35
 158  0.312  0.156  0.781- 157 2.35 159 2.35 173 2.35 285 2.35
 159  0.250  0.125  0.875-  32 2.35 144 2.35 158 2.35 160 2.35
 160  0.312  0.156  0.906- 145 2.35 159 2.35 175 2.35 287 2.35
 161  0.250  0.250  0.000-  34 2.35 146 2.35 162 2.35 176 2.35
 162  0.312  0.281  0.031- 161 2.35 163 2.35 177 2.35 289 2.35
 163  0.250  0.250  0.125-  36 2.35 148 2.35 162 2.35 164 2.35
 164  0.312  0.281  0.156- 163 2.35 165 2.35 179 2.35 291 2.35
 165  0.250  0.250  0.250-  38 2.35 150 2.35 164 2.35 166 2.35
 166  0.312  0.281  0.281- 165 2.35 167 2.35 181 2.35 293 2.35
 167  0.250  0.250  0.375-  40 2.35 152 2.35 166 2.35 168 2.35
 168  0.312  0.281  0.406- 167 2.35 169 2.35 183 2.35 295 2.35
 169  0.250  0.250  0.500-  42 2.35 154 2.35 168 2.35 170 2.35
 170  0.312  0.281  0.531- 169 2.35 171 2.35 185 2.35 297 2.35
 171  0.250  0.250  0.625-  44 2.35 156 2.35 170 2.35 172 2.35
 172  0.312  0.281  0.656- 171 2.35 173 2.35 187 2.35 299 2.35
 173  0.250  0.250  0.750-  46 2.35 158 2.35 172 2.35 174 2.35
 174  0.312  0.281  0.781- 173 2.35 175 2.35 189 2.35 301 2.35
 175  0.250  0.250  0.875-  48 2.35 160 2.35 174 2.35 176 2.35
 176  0.312  0.281  0.906- 161 2.35 175 2.35 191 2.35 303 2.35
 177  0.250  0.375  0.000-  50 2.35 162 2.35 178 2.35 192 2.35
 178  0.312  0.406  0.031- 177 2.35 179 2.35 193 2.35 305 2.35
 179  0.250  0.375  0.125-  52 2.35 164 2.35 178 2.35 180 2.35
 180  0.312  0.406  0.156- 179 2.35 181 2.35 195 2.35 307 2.35
 181  0.250  0.375  0.250-  54 2.35 166 2.35 180 2.35 182 2.35
 182  0.312  0.406  0.281- 181 2.35 183 2.35 197 2.35 309 2.35
 183  0.250  0.375  0.375-  56 2.35 168 2.35 182 2.35 184 2.35
 184  0.312  0.406  0.406- 183 2.35 185 2.35 199 2.35 311 2.35
 185  0.250  0.375  0.500-  58 2.35 170 2.35 184 2.35 186 2.35
 186  0.312  0.406  0.531- 185 2.35 187 2.35 201 2.35 313 2.35
 187  0.250  0.375  0.625-  60 2.35 172 2.35 186 2.35 188 2.35
 188  0.312  0.406  0.656- 187 2.35 189 2.35 203 2.35 315 2.35
 189  0.250  0.375  0.750-  62 2.35 174 2.35 188 2.35 190 2.35
 190  0.312  0.406  0.781- 189 2.35 191 2.35 205 2.35 317 2.35
 191  0.250  0.375  0.875-  64 2.35 176 2.35 190 2.35 192 2.35
 192  0.312  0.406  0.906- 177 2.35 191 2.35 207 2.35 319 2.35
 193  0.250  0.500  0.000-  66 2.35 178 2.35 194 2.35 208 2.35
 194  0.312  0.531  0.031- 193 2.35 195 2.35 209 2.35 321 2.35
 195  0.250  0.500  0.125-  68 2.35 180 2.35 194 2.35 196 2.35
 196  0.312  0.531  0.156- 195 2.35 197 2.35 211 2.35 323 2.35
 197  0.250  0.500  0.250-  70 2.35 182 2.35 196 2.35 198 2.35
 198  0.312  0.531  0.281- 197 2.35 199 2.35 213 2.35 325 2.35
 199  0.250  0.500  0.375-  72 2.35 184 2.35 198 2.35 200 2.35
 200  0.312  0.531  0.406- 199 2.35 201 2.35 215 2.35 327 2.35
 201  0.250  0.500  0.500-  74 2.35 186 2.35 200 2.35 202 2.35
 202  0.312  0.531  0.531- 201 2.35 203 2.35 217 2.35 329 2.35
 203  0.250  0.500  0.625-  76 2.35 188 2.35 202 2.35 204 2.35
 204  0.312  0.531  0.656- 203 2.35 205 2.35 219 2.35 331 2.35
 205  0.250  0.500  0.750-  78 2.35 190 2.35 204 2.35 206 2.35
 206  0.312  0.531  0.781- 205 2.35 207 2.35 221 2.35 333 2.35
 207  0.250  0.500  0.875-  80 2.35 192 2.35 206 2.35 208 2.35
 208  0.312  0.531  0.906- 193 2.35 207 2.35 223 2.35 335 2.35
 209  0.250  0.625  0.000-  82 2.35 194 2.35 210 2.35 224 2.35
 210  0.312  0.656  0.031- 209 2.35 211 2.35 225 2.35 337 2.35
 211  0.250  0.625  0.125-  84 2.35 196 2.35 210 2.35 212 2.35
 212  0.312  0.656  0.156- 211 2.35 213 2.35 227 2.35 339 2.35
 213  0.250  0.625  0.250-  86 2.35 198 2.35 212 2.35 214 2.35
 214  0.312  0.656  0.281- 213 2.35 215 2.35 229 2.35 341 2.35
 215  0.250  0.625  0.375-  88 2.35 200 2.35 214 2.35 216 2.35
 216  0.312  0.656  0.406- 215 2.35 217 2.35 231 2.35 343 2.35
 217  0.250  0.625  0.500-  90 2.35 202 2.35 216 2.35 218 2.35
 218  0.312  0.656  0.531- 217 2.35 219 2.35 233 2.35 345 2.35
 219  0.250  0.625  0.625-  92 2.35 204 2.35 218 2.35 220 2.35
 220  0.312  0.656  0.656- 219 2.35 221 2.35 235 2.35 347 2.35
 221  0.250  0.625  0.750-  94 2.35 206 2.35 220 2.35 222 2.35
 222  0.312  0.656  0.781- 221 2.35 223 2.35 237 2.35 349 2.35
 223  0.250  0.625  0.875-  96 2.35 208 2.35 222 2.35 224 2.35
 224  0.312  0.656  0.906- 209 2.35 223 2.35 239 2.35 351 2.35
 225  0.250  0.750  0.000-  98 2.35 210 2.35 226 2.35 240 2.35
 226  0.312  0.781  0.031- 225 2.35 227 2.35 241 2.35 353 2.35
 227  0.250  0.750  0.125- 100 2.35 212 2.35 226 2.35 228 2.35
 228  0.312  0.781  0.156- 227 2.35 229 2.35 243 2.35 355 2.35
 229  0.250  0.750  0.250- 102 2.35 214 2.35 228 2.35 230 2.35
 230  0.312  0.781  0.281- 229 2.35 231 2.35 245 2.35 357 2.35
 231  0.250  0.750  0.375- 104 2.35 216 2.35 230 2.35 232 2.35
 232  0.312  0.781  0.406- 231 2.35 233 2.35 247 2.35 359 2.35
 233  0.250  0.750  0.500- 106 2.35 218 2.35 232 2.35 234 2.35
 234  0.312  0.781  0.531- 233 2.35 235 2.35 249 2.35 361 2.35
 235  0.250  0.750  0.625- 108 2.35 220 2.35 234 2.35 236 2.35
 236  0.312  0.781  0.656- 235 2.35 237 2.35 251 2.35 363 2.35
 237  0.250  0.750  0.750- 110 2.35 222 2.35 236 2.35 238 2.35
 238  0.312  0.781  0.781- 237 2.35 239 2.35 253 2.35 365 2.35
 239  0.250  0.750  0.875- 112 2.35 224 2.35 238 2.35 240 2.35
 240  0.312  0.781  0.906- 225 2.35 239 2.35 255 2.35 367 2.35
 241  0.250  0.875  0.000- 114 2.35 226 2.35 242 2.35 256 2.35
 242  0.312  0.906  0.031- 129 2.35 241 2.35 243 2.35 369 2.35
 243  0.250  0.875  0.125- 116 2.35 228 2.35 242 2.35 244 2.35
 244  0.312  0.906  0.156- 131 2.35 243 2.35 245 2.35 371 2.35
 245  0.250  0.875  0.250- 118 2.35 230 2.35 244 2.35 246 2.35
 246  0.312  0.906  0.281- 133 2.35 245 2.35 247 2.35 373 2.35
 247  0.250  0.875  0.375- 120 2.35 232 2.35 246 2.35 248 2.35
 248  0.312  0.906  0.406- 135 2.35 247 2.35 249 2.35 375 2.35
 249  0.250  0.875  0.500- 122 2.35 234 2.35 248 2.35 250 2.35
 250  0.312  0.906  0.531- 137 2.35 249 2.35 251 2.35 377 2.35
 251  0.250  0.875  0.625- 124 2.35 236 2.35 250 2.35 252 2.35
 252  0.312  0.906  0.656- 139 2.35 251 2.35 253 2.35 379 2.35
 253  0.250  0.875  0.750- 126 2.35 238 2.35 252 2.35 254 2.35
 254  0.312  0.906  0.781- 141 2.35 253 2.35 255 2.35 381 2.35
 255  0.250  0.875  0.875- 128 2.35 240 2.35 254 2.35 256 2.35
 256  0.312  0.906  0.906- 143 2.35 241 2.35 255 2.35 383 2.35
 257  0.500  0.000  0.000- 130 2.35 258 2.35 272 2.35 370 2.35
 258  0.562  0.031  0.031- 257 2.35 259 2.35 273 2.35 385 2.35
 259  0.500  0.000  0.125- 132 2.35 258 2.35 260 2.35 372 2.35
 260  0.562  0.031  0.156- 259 2.35 261 2.35 275 2.35 387 2.35
 261  0.500  0.000  0.250- 134 2.35 260 2.35 262 2.35 374 2.35
 262  0.562  0.031  0.281- 261 2.35 263 2.35 277 2.35 389 2.35
 263  0.500  0.000  0.375- 136 2.35 262 2.35 264 2.35 376 2.35
 264  0.562  0.031  0.406- 263 2.35 265 2.35 279 2.35 391 2.35
 265  0.500  0.000  0.500- 138 2.35 264 2.35 266 2.35 378 2.35
 266  0.562  0.031  0.531- 265 2.35 267 2.35 281 2.35 393 2.35
 267  0.500  0.000  0.625- 140 2.35 266 2.35 268 2.35 380 2.35
 268  0.562  0.031  0.656- 267 2.35 269 2.35 283 2.35 395 2.35
 269  0.500  0.000  0.750- 142 2.35 268 2.35 270 2.35 382 2.35
 270  0.562  0.031  0.781- 269 2.35 271 2.35 285 2.35 397 2.35
 271  0.500  0.000  0.875- 144 2.35 270 2.35 272 2.35 384 2.35
 272  0.562  0.031  0.906- 257 2.35 271 2.35 287 2.35 399 2.35
 273  0.500  0.125  0.000- 146 2.35 258 2.35 274 2.35 288 2.35
 274  0.562  0.156  0.031- 273 2.35 275 2.35 289 2.35 401 2.35
 275  0.500  0.125  0.125- 148 2.35 260 2.35 274 2.35 276 2.35
 276  0.562  0.156  0.156- 275 2.35 277 2.35 291 2.35 403 2.35
 277  0.500  0.125  0.250- 150 2.35 262 2.35 276 2.35 278 2.35
 278  0.562  0.156  0.281- 277 2.35 279 2.35 293 2.35 405 2.35
 279  0.500  0.125  0.375- 152 2.35 264 2.35 278 2.35 280 2.35
 280  0.562  0.156  0.406- 279 2.35 281 2.35 295 2.35 407 2.35
 281  0.500  0.125  0.500- 154 2.35 266 2.35 280 2.35 282 2.35
 282  0.562  0.156  0.531- 281 2.35 283 2.35 297 2.35 409 2.35
 283  0.500  0.125  0.625- 156 2.35 268 2.35 282 2.35 284 2.35
 284  0.562  0.156  0.656- 283 2.35 285 2.35 299 2.35 411 2.35
 285  0.500  0.125  0.750- 158 2.35 270 2.35 284 2.35 286 2.35
 286  0.562  0.156  0.781- 285 2.35 287 2.35 301 2.35 413 2.35
 287  0.500  0.125  0.875- 160 2.35 272 2.35 286 2.35 288 2.35
 288  0.562  0.156  0.906- 273 2.35 287 2.35 303 2.35 415 2.35
 289  0.500  0.250  0.000- 162 2.35 274 2.35 290 2.35 304 2.35
 290  0.562  0.281  0.031- 289 2.35 291 2.35 305 2.35 417 2.35
 291  0.500  0.250  0.125- 164 2.35 276 2.35 290 2.35 292 2.35
 292  0.562  0.281  0.156- 291 2.35 293 2.35 307 2.35 419 2.35
 293  0.500  0.250  0.250- 166 2.35 278 2.35 292 2.35 294 2.35
 294  0.562  0.281  0.281- 293 2.35 295 2.35 309 2.35 421 2.35
 295  0.500  0.250  0.375- 168 2.35 280 2.35 294 2.35 296 2.35
 296  0.562  0.281  0.406- 295 2.35 297 2.35 311 2.35 423 2.35
 297  0.500  0.250  0.500- 170 2.35 282 2.35 296 2.35 298 2.35
 298  0.562  0.281  0.531- 297 2.35 299 2.35 313 2.35 425 2.35
 299  0.500  0.250  0.625- 172 2.35 284 2.35 298 2.35 300 2.35
 300  0.562  0.281  0.656- 299 2.35 301 2.35 315 2.35 427 2.35
 301  0.500  0.250  0.750- 174 2.35 286 2.35 300 2.35 302 2.35
 302  0.562  0.281  0.781- 301 2.35 303 2.35 317 2.35 429 2.35
 303  0.500  0.250  0.875- 176 2.35 288 2.35 302 2.35 304 2.35
 304  0.562  0.281  0.906- 289 2.35 303 2.35 319 2.35 431 2.35
 305  0.500  0.375  0.000- 178 2.35 290 2.35 306 2.35 320 2.35
 306  0.562  0.406  0.031- 305 2.35 307 2.35 321 2.35 433 2.35
 307  0.500  0.375  0.125- 180 2.35 292 2.35 306 2.35 308 2.35
 308  0.562  0.406  0.156- 307 2.35 309 2.35 323 2.35 435 2.35
 309  0.500  0.375  0.250- 182 2.35 294 2.35 308 2.35 310 2.35
 310  0.562  0.406  0.281- 309 2.35 311 2.35 325 2.35 437 2.35
 311  0.500  0.375  0.375- 184 2.35 296 2.35 310 2.35 312 2.35
 312  0.562  0.406  0.406- 311 2.35 313 2.35 327 2.35 439 2.35
 313  0.500  0.375  0.500- 186 2.35 298 2.35 312 2.35 314 2.35
 314  0.562  0.406  0.531- 313 2.35 315 2.35 329 2.35 441 2.35
 315  0.500  0.375  0.625- 188 2.35 300 2.35 314 2.35 316 2.35
 316  0.562  0.406  0.656- 315 2.35 317 2.35 331 2.35 443 2.35
 317  0.500  0.375  0.750- 190 2.35 302 2.35 316 2.35 318 2.35
 318  0.562  0.406  0.781- 317 2.35 319 2.35 333 2.35 445 2.35
 319  0.500  0.375  0.875- 192 2.35 304 2.35 318 2.35 320 2.35
 320  0.562  0.406  0.906- 305 2.35 319 2.35 335 2.35 447 2.35
 321  0.500  0.500  0.000- 194 2.35 306 2.35 322 2.35 336 2.35
 322  0.562  0.531  0.031- 321 2.35 323 2.35 337 2.35 449 2.35
 323  0.500  0.500  0.125- 196 2.35 308 2.35 322 2.35 324 2.35
 324  0.562  0.531  0.156- 323 2.35 325 2.35 339 2.35 451 2.35
 325  0.500  0.500  0.250- 198 2.35 310 2.35 324 2.35 326 2.35
 326  0.562  0.531  0.281- 325 2.35 327 2.35 341 2.35 453 2.35
 327  0.500  0.500  0.375- 200 2.35 312 2.35 326 2.35 328 2.35
 328  0.562  0.531  0.406- 327 2.35 329 2.35 343 2.35 455 2.35
 329  0.500  0.500  0.500- 202 2.35 314 2.35 328 2.35 330 2.35
 330  0.562  0.531  0.531- 329 2.35 331 2.35 345 2.35 457 2.35
 331  0.500  0.500  0.625- 204 2.35 316 2.35 330 2.35 332 2.35
 332  0.562  0.531  0.656- 331 2.35 333 2.35 347 2.35 459 2.35
 333  0.500  0.500  0.750- 206 2.35 318 2.35 332 2.35 334 2.35
 334  0.562  0.531  0.781- 333 2.35 335 2.35 349 2.35 461 2.35
 335  0.500  0.500  0.875- 208 2.35 320 2.35 334 2.35 336 2.35
 336  0.562  0.531  0.906- 321 2.35 335 2.35 351 2.35 463 2.35
 337  0.500  0.625  0.000- 210 2.35 322 2.35 338 2.35 352 2.35
 338  0.562  0.656  0.031- 337 2.35 339 2.35 353 2.35 465 2.35
 339  0.500  0.625  0.125- 212 2.35 324 2.35 338 2.35 340 2.35
 340  0.562  0.656  0.156- 339 2.35 341 2.35 355 2.35 467 2.35
 341  0.500  0.625  0.250- 214 2.35 326 2.35 340 2.35 342 2.35
 342  0.562  0.656  0.281- 341 2.35 343 2.35 357 2.35 469 2.35
 343  0.500  0.625  0.375- 216 2.35 328 2.35 342 2.35 344 2.35
 344  0.562  0.656  0.406- 343 2.35 345 2.35 359 2.35 471 2.35
 345  0.500  0.625  0.500- 218 2.35 330 2.35 344 2.35 346 2.35
 346  0.562  0.656  0.531- 345 2.35 347 2.35 361 2.35 473 2.35
 347  0.500  0.625  0.625- 220 2.35 332 2.35 346 2.35 348 2.35
 348  0.562  0.656  0.656- 347 2.35 349 2.35 363 2.35 475 2.35
 349  0.500  0.625  0.750- 222 2.35 334 2.35 348 2.35 350 2.35
 350  0.562  0.656  0.781- 349 2.35 351 2.35 365 2.35 477 2.35
 351  0.500  0.625  0.875- 224 2.35 336 2.35 350 2.35 352 2.35
 352  0.562  0.656  0.906- 337 2.35 351 2.35 367 2.35 479 2.35
 353  0.500  0.750  0.000- 226 2.35 338 2.35 354 2.35 368 2.35
 354  0.562  0.781  0.031- 353 2.35 355 2.35 369 2.35 481 2.35
 355  0.500  0.750  0.125- 228 2.35 340 2.35 354 2.35 356 2.35
 356  0.562  0.781  0.156- 355 2.35 357 2.35 371 2.35 483 2.35
 357  0.500  0.750  0.250- 230 2.35 342 2.35 356 2.35 358 2.35
 358  0.562  0.781  0.281- 357 2.35 359 2.35 373 2.35 485 2.35
 359  0.500  0.750  0.375- 232 2.35 344 2.35 358 2.35 360 2.35
 360  0.562  0.781  0.406- 359 2.35 361 2.35 375 2.35 487 2.35
 361  0.500  0.750  0.500- 234 2.35 346 2.35 360 2.35 362 2.35
 362  0.562  0.781  0.531- 361 2.35 363 2.35 377 2.35 489 2.35
 363  0.500  0.750  0.625- 236 2.35 348 2.35 362 2.35 364 2.35
 364  0.562  0.781  0.656- 363 2.35 365 2.35 379 2.35 491 2.35
 365  0.500  0.750  0.750- 238 2.35 350 2.35 364 2.35 366 2.35
 366  0.562  0.781  0.781- 365 2.35 367 2.35 381 2.35 493 2.35
 367  0.500  0.750  0.875- 240 2.35 352 2.35 366 2.35 368 2.35
 368  0.562  0.781  0.906- 353 2.35 367 2.35 383 2.35 495 2.35
 369  0.500  0.875  0.000- 242 2.35 354 2.35 370 2.35 384 2.35
 370  0.562  0.906  0.031- 257 2.35 369 2.35 371 2.35 497 2.35
 371  0.500  0.875  0.125- 244 2.35 356 2.35 370 2.35 372 2.35
 372  0.562  0.906  0.156- 259 2.35 371 2.35 373 2.35 499 2.35
 373  0.500  0.875  0.250- 246 2.35 358 2.35 372 2.35 374 2.35
 374  0.562  0.906  0.281- 261 2.35 373 2.35 375 2.35 501 2.35
 375  0.500  0.875  0.375- 248 2.35 360 2.35 374 2.35 376 2.35
 376  0.562  0.906  0.406- 263 2.35 375 2.35 377 2.35 503 2.35
 377  0.500  0.875  0.500- 250 2.35 362 2.35 376 2.35 378 2.35
 378  0.562  0.906  0.531- 265 2.35 377 2.35 379 2.35 505 2.35
 379  0.500  0.875  0.625- 252 2.35 364 2.35 378 2.35 380 2.35
 380  0.562  0.906  0.656- 267 2.35 379 2.35 381 2.35 507 2.35
 381  0.500  0.875  0.750- 254 2.35 366 2.35 380 2.35 382 2.35
 382  0.562  0.906  0.781- 269 2.35 381 2.35 383 2.35 509 2.35
 383  0.500  0.875  0.875- 256 2.35 368 2.35 382 2.35 384 2.35
 384  0.562  0.906  0.906- 271 2.35 369 2.35 383 2.35 511 2.35
 385  0.750  0.000  0.000- 258 2.35 386 2.35 400 2.35 498 2.35
 386  0.812  0.031  0.031-   1 2.35 385 2.35 387 2.35 401 2.35
 387  0.750  0.000  0.125- 260 2.35 386 2.35 388 2.35 500 2.35
 388  0.812  0.031  0.156-   3 2.35 387 2.35 389 2.35 403 2.35
 389  0.750  0.000  0.250- 262 2.35 388 2.35 390 2.35 502 2.35
 390  0.812  0.031  0.281-   5 2.35 389 2.35 391 2.35 405 2.35
 391  0.750  0.000  0.375- 264 2.35 390 2.35 392 2.35 504 2.35
 392  0.812  0.031  0.406-   7 2.35 391 2.35 393 2.35 407 2.35
 393  0.750  0.000  0.500- 266 2.35 392 2.35 394 2.35 506 2.35
 394  0.812  0.031  0.531-   9 2.35 393 2.35 395 2.35 409 2.35
 395  0.750  0.000  0.625- 268 2.35 394 2.35 396 2.35 508 2.35
 396  0.812  0.031  0.656-  11 2.35 395 2.35 397 2.35 411 2.35
 397  0.750  0.000  0.750- 270 2.35 396 2.35 398 2.35 510 2.35
 398  0.812  0.031  0.781-  13 2.35 397 2.35 399 2.35 413 2.35
 399  0.750  0.000  0.875- 272 2.35 398 2.35 400 2.35 512 2.35
 400  0.812  0.031  0.906-  15 2.35 385 2.35 399 2.35 415 2.35
 401  0.750  0.125  0.000- 274 2.35 386 2.35 402 2.35 416 2.35
 402  0.812  0.156  0.031-  17 2.35 401 2.35 403 2.35 417 2.35
 403  0.750  0.125  0.125- 276 2.35 388 2.35 402 2.35 404 2.35
 404  0.812  0.156  0.156-  19 2.35 403 2.35 405 2.35 419 2.35
 405  0.750  0.125  0.250- 278 2.35 390 2.35 404 2.35 406 2.35
 406  0.812  0.156  0.281-  21 2.35 405 2.35 407 2.35 421 2.35
 407  0.750  0.125  0.375- 280 2.35 392 2.35 406 2.35 408 2.35
 408  0.812  0.156  0.406-  23 2.35 407 2.35 409 2.35 423 2.35
 409  0.750  0.125  0.500- 282 2.35 394 2.35 408 2.35 410 2.35
 410  0.812  0.156  0.531-  25 2.35 409 2.35 411 2.35 425 2.35
 411  0.750  0.125  0.625- 284 2.35 396 2.35 410 2.35 412 2.35
 412  0.812  0.156  0.656-  27 2.35 411 2.35 413 2.35 427 2.35
 413  0.750  0.125  0.750- 286 2.35 398 2.35 412 2.35 414 2.35
 414  0.812  0.156  0.781-  29 2.35 413 2.35 415 2.35 429 2.35
 415  0.750  0.125  0.875- 288 2.35 400 2.35 414 2.35 416 2.35
 416  0.812  0.156  0.906-  31 2.35 401 2.35 415 2.35 431 2.35
 417  0.750  0.250  0.000- 290 2.35 402 2.35 418 2.35 432 2.35
 418  0.812  0.281  0.031-  33 2.35 417 2.35 419 2.35 433 2.35
 419  0.750  0.250  0.125- 292 2.35 404 2.35 418 2.35 420 2.35
 420  0.812  0.281  0.156-  35 2.35 419 2.35 421 2.35 435 2.35
 421  0.750  0.250  0.250- 294 2.35 406 2.35 420 2.35 422 2.35
 422  0.812  0.281  0.281-  37 2.35 421 2.35 423 2.35 437 2.35
 423  0.750  0.250  0.375- 296 2.35 408 2.35 422 2.35 424 2.35
 424  0.812  0.281  0.406-  39 2.35 423 2.35 425 2.35 439 2.35
 425  0.750  0.250  0.500- 298 2.35 410 2.35 424 2.35 426 2.35
 426  0.812  0.281  0.531-  41 2.35 425 2.35 427 2.35 441 2.35
 427  0.750  0.250  0.625- 300 2.35 412 2.35 426 2.35 428 2.35
 428  0.812  0.281  0.656-  43 2.35 427 2.35 429 2.35 443 2.35
 429  0.750  0.250  0.750- 302 2.35 414 2.35 428 2.35 430 2.35
 430  0.812  0.281  0.781-  45 2.35 429 2.35 431 2.35 445 2.35
 431  0.750  0.250  0.875- 304 2.35 416 2.35 430 2.35 432 2.35
 432  0.812  0.281  0.906-  47 2.35 417 2.35 431 2.35 447 2.35
 433  0.750  0.375  0.000- 306 2.35 418 2.35 434 2.35 448 2.35
 434  0.812  0.406  0.031-  49 2.35 433 2.35 435 2.35 449 2.35
 435  0.750  0.375  0.125- 308 2.35 420 2.35 434 2.35 436 2.35
 436  0.812  0.406  0.156-  51 2.35 435 2.35 437 2.35 451 2.35
 437  0.750  0.375  0.250- 310 2.35 422 2.35 436 2.35 438 2.35
 438  0.812  0.406  0.281-  53 2.35 437 2.35 439 2.35 453 2.35
 439  0.750  0.375  0.375- 312 2.35 424 2.35 438 2.35 440 2.35
 440  0.812  0.406  0.406-  55 2.35 439 2.35 441 2.35 455 2.35
 441  0.750  0.375  0.500- 314 2.35 426 2.35 440 2.35 442 2.35
 442  0.812  0.406  0.531-  57 2.35 441 2.35 443 2.35 457 2.35
 443  0.750  0.375  0.625- 316 2.35 428 2.35 442 2.35 444 2.35
 444  0.812  0.406  0.656-  59 2.35 443 2.35 445 2.35 459 2.35
 445  0.750  0.375  0.750- 318 2.35 430 2.35 444 2.35 446 2.35
 446  0.812  0.406  0.781-  61 2.35 445 2.35 447 2.35 461 2.35
 447  0.750  0.375  0.875- 320 2.35 432 2.35 446 2.35 448 2.35
 448  0.812  0.406  0.906-  63 2.35 433 2.35 447 2.35 463 2.35
 449  0.750  0.500  0.000- 322 2.35 434 2.35 450 2.35 464 2.35
 450  0.812  0.531  0.031-  65 2.35 449 2.35 451 2.35 465 2.35
 451  0.750  0.500  0.125- 324 2.35 436 2.35 450 2.35 452 2.35
 452  0.812  0.531  0.156-  67 2.35 451 2.35 453 2.35 467 2.35
 453  0.750  0.500  0.250- 326 2.35 438 2.35 452 2.35 454 2.35
 454  0.812  0.531  0.281-  69 2.35 453 2.35 455 2.35 469 2.35
 455  0.750  0.500  0.375- 328 2.35 440 2.35 454 2.35 456 2.35
 456  0.812  0.531  0.406-  71 2.35 455 2.35 457 2.35 471 2.35
 457  0.750  0.500  0.500- 330 2.35 442 2.35 456 2.35 458 2.35
 458  0.812  0.531  0.531-  73 2.35 457 2.35 459 2.35 473 2.35
 459  0.750  0.500  0.625- 332 2.35 444 2.35 458 2.35 460 2.35
 460  0.812  0.531  0.656-  75 2.35 459 2.35 461 2.35 475 2.35
 461  0.750  0.500  0.750- 334 2.35 446 2.35 460 2.35 462 2.35
 462  0.812  0.531  0.781-  77 2.35 461 2.35 463 2.35 477 2.35
 463  0.750  0.500  0.875- 336 2.35 448 2.35 462 2.35 464 2.35
 464  0.812  0.531  0.906-  79 2.35 449 2.35 463 2.35 479 2.35
 465  0.750  0.625  0.000- 338 2.35 450 2.35 466 2.35 480 2.35
 466  0.812  0.656  0.031-  81 2.35 465 2.35 467 2.35 481 2.35
 467  0.750  0.625  0.125- 340 2.35 452 2.35 466 2.35 468 2.35
 468  0.812  0.656  0.156-  83 2.35 467 2.35 469 2.35 483 2.35
 469  0.750  0.625  0.250- 342 2.35 454 2.35 468 2.35 470 2.35
 470  0.812  0.656  0.281-  85 2.35 469 2.35 471 2.35 485 2.35
 471  0.750  0.625  0.375- 344 2.35 456 2.35 470 2.35 472 2.35
 472  0.812  0.656  0.406-  87 2.35 471 2.35 473 2.35 487 2.35
 473  0.750  0.625  0.500- 346 2.35 458 2.35 472 2.35 474 2.35
 474  0.812  0.656  0.531-  89 2.35 473 2.35 475 2.35 489 2.35
 475  0.750  0.625  0.625- 348 2.35 460 2.35 474 2.35 476 2.35
 476  0.812  0.656  0.656-  91 2.35 475 2.35 477 2.35 491 2.35
 477  0.750  0.625  0.750- 350 2.35 462 2.35 476 2.35 478 2.35
 478  0.812  0.656  0.781-  93 2.35 477 2.35 479 2.35 493 2.35
 479  0.750  0.625  0.875- 352 2.35 464 2.35 478 2.35 480 2.35
 480  0.812  0.656  0.906-  95 2.35 465 2.35 479 2.35 495 2.35
 481  0.750  0.750  0.000- 354 2.35 466 2.35 482 2.35 496 2.35
 482  0.812  0.781  0.031-  97 2.35 481 2.35 483 2.35 497 2.35
 483  0.750  0.750  0.125- 356 2.35 468 2.35 482 2.35 484 2.35
 484  0.812  0.781  0.156-  99 2.35 483 2.35 485 2.35 499 2.35
 485  0.750  0.750  0.250- 358 2.35 470 2.35 484 2.35 486 2.35
 486  0.812  0.781  0.281- 101 2.35 485 2.35 487 2.35 501 2.35
 487  0.750  0.750  0.375- 360 2.35 472 2.35 486 2.35 488 2.35
 488  0.812  0.781  0.406- 103 2.35 487 2.35 489 2.35 503 2.35
 489  0.750  0.750  0.500- 362 2.35 474 2.35 488 2.35 490 2.35
 490  0.812  0.781  0.531- 105 2.35 489 2.35 491 2.35 505 2.35
 491  0.750  0.750  0.625- 364 2.35 476 2.35 490 2.35 492 2.35
 492  0.812  0.781  0.656- 107 2.35 491 2.35 493 2.35 507 2.35
 493  0.750  0.750  0.750- 366 2.35 478 2.35 492 2.35 494 2.35
 494  0.812  0.781  0.781- 109 2.35 493 2.35 495 2.35 509 2.35
 495  0.750  0.750  0.875- 368 2.35 480 2.35 494 2.35 496 2.35
 496  0.812  0.781  0.906- 111 2.35 481 2.35 495 2.35 511 2.35
 497  0.750  0.875  0.000- 370 2.35 482 2.35 498 2.35 512 2.35
 498  0.812  0.906  0.031- 113 2.35 385 2.35 497 2.35 499 2.35
 499  0.750  0.875  0.125- 372 2.35 484 2.35 498 2.35 500 2.35
 500  0.812  0.906  0.156- 115 2.35 387 2.35 499 2.35 501 2.35
 501  0.750  0.875  0.250- 374 2.35 486 2.35 500 2.35 502 2.35
 502  0.812  0.906  0.281- 117 2.35 389 2.35 501 2.35 503 2.35
 503  0.750  0.875  0.375- 376 2.35 488 2.35 502 2.35 504 2.35
 504  0.812  0.906  0.406- 119 2.35 391 2.35 503 2.35 505 2.35
 505  0.750  0.875  0.500- 378 2.35 490 2.35 504 2.35 506 2.35
 506  0.812  0.906  0.531- 121 2.35 393 2.35 505 2.35 507 2.35
 507  0.750  0.875  0.625- 380 2.35 492 2.35 506 2.35 508 2.35
 508  0.812  0.906  0.656- 123 2.35 395 2.35 507 2.35 509 2.35
 509  0.750  0.875  0.750- 382 2.35 494 2.35 508 2.35 510 2.35
 510  0.812  0.906  0.781- 125 2.35 397 2.35 509 2.35 511 2.35
 511  0.750  0.875  0.875- 384 2.35 496 2.35 510 2.35 512 2.35
 512  0.812  0.906  0.906- 127 2.35 399 2.35 497 2.35 511 2.35
 
  LATTYP: Found a base centered orthorhombic cell.
 ALAT       =    30.7224914228
 B/A-ratio  =     1.4142135624
 C/A-ratio  =     0.5000000000
  
  Lattice vectors:
  
 A1 = (  10.8620410100,  21.7240820200,  10.8620410100)
 A2 = (  10.8620410100, -21.7240820200,  10.8620410100)
 A3 = (  10.8620410100,   0.0000000000, -10.8620410100)


Analysis of symmetry for initial positions (statically):
=====================================================================
 Subroutine PRICEL returns following result:
 
  LATTYP: Found a face centered cubic cell.
 ALAT       =     5.4310205050
  
  Lattice vectors:
  
 A1 = (  -2.7155102525,   0.0000000000,   2.7155102525)
 A2 = (   0.0000000000,   2.7155102525,   2.7155102525)
 A3 = (  -2.7155102525,   2.7155102525,   0.0000000000)
 
 256 primitive cells build up your supercell.
 

 Routine SETGRP: Setting up the symmetry group for a 
 base centered orthorhombic supercell.


 Subroutine GETGRP returns: Found  8 space group operations
 (whereof  4 operations were pure point group operations)
 out of a pool of  8 trial point group operations.


The static configuration has the point symmetry C_2v.
 The point group associated with its full space group is D_2h.


Analysis of symmetry for dynamics (positions and initial velocities):
=====================================================================
 Subroutine PRICEL returns following result:
 
  LATTYP: Found a face centered cubic cell.
 ALAT       =     5.4310205050
  
  Lattice vectors:
  
 A1 = (  -2.7155102525,   0.0000000000,   2.7155102525)
 A2 = (   0.0000000000,   2.7155102525,   2.7155102525)
 A3 = (  -2.7155102525,   2.7155102525,   0.0000000000)
 
 256 primitive cells build up your supercell.
 

 Routine SETGRP: Setting up the symmetry group for a 
 base centered orthorhombic supercell.


 Subroutine GETGRP returns: Found  8 space group operations
 (whereof  4 operations were pure point group operations)
 out of a pool of  8 trial point group operations.


The dynamic configuration has the point symmetry C_2v.
 The point group associated with its full space group is D_2h.


 Subroutine INISYM returns: Found  8 space group operations
 (whereof  4 operations are pure point group operations),
 and found   256 'primitive' translations

 
 
 KPOINTS: Automatic mesh                          

Automatic generation of k-mesh.
Space group operators:
 irot       det(A)        alpha          n_x          n_y          n_z        tau_x        tau_y        tau_z
    1     1.000000     0.000000     1.000000     0.000000     0.000000     0.000000     0.000000     0.000000
    2    -1.000000   180.000000     0.707107     0.000000    -0.707107     0.000000     0.000000     0.000000
    3     1.000000   180.000000     0.000000     1.000000     0.000000     0.000000     0.000000     0.000000
    4    -1.000000   180.000000     0.707107     0.000000     0.707107     0.000000     0.000000     0.000000
    5    -1.000000     0.000000     1.000000     0.000000     0.000000     0.062500     0.031250     0.031250
    6     1.000000   180.000000     0.707107     0.000000    -0.707107     0.062500     0.031250     0.031250
    7    -1.000000   180.000000     0.000000     1.000000     0.000000     0.062500     0.031250     0.031250
    8     1.000000   180.000000     0.707107     0.000000     0.707107     0.062500     0.031250     0.031250
 
 Subroutine IBZKPT returns following result:
 ===========================================
 
 Found      1 irreducible k-points:
 
 Following reciprocal coordinates:
            Coordinates               Weight
  0.000000  0.000000  0.000000      1.000000
 
 Following cartesian coordinates:
            Coordinates               Weight
  0.000000  0.000000  0.000000      1.000000
 


--------------------------------------------------------------------------------------------------------




 Dimension of arrays:
   k-points           NKPTS =      1   k-points in BZ     NKDIM =      1   number of bands    NBANDS=   1284
   number of dos      NEDOS =    301   number of ions     NIONS =    512
   non local maximal  LDIM  =      4   non local SUM 2l+1 LMDIM =      8
   total plane-waves  NPLWV = 864000
   max r-space proj   IRMAX =   1405   max aug-charges    IRDMAX=   3017
   dimension x,y,z NGX =    60 NGY =  120 NGZ =  120
   dimension x,y,z NGXF=   120 NGYF=  240 NGZF=  240
   support grid    NGXF=   120 NGYF=  240 NGZF=  240
   ions per type =             512
   NGX,Y,Z   is equivalent  to a cutoff of   6.49,  6.49,  6.49 a.u.
   NGXF,Y,Z  is equivalent  to a cutoff of  12.99, 12.99, 12.99 a.u.

 SYSTEM =  Si-big                                  
 POSCAR =  Si                                      

 Startparameter for this run:
   NWRITE =      2    write-flag & timer
   PREC   = normal    normal or accurate (medium, high low for compatibility)
   ISTART =      0    job   : 0-new  1-cont  2-samecut
   ICHARG =      2    charge: 1-file 2-atom 10-const
   ISPIN  =      1    spin polarized calculation?
   LNONCOLLINEAR =      F non collinear calculations
   LSORBIT =      F    spin-orbit coupling
   INIWAV =      1    electr: 0-lowe 1-rand  2-diag
   LASPH  =      F    aspherical Exc in radial PAW
   METAGGA=      F    non-selfconsistent MetaGGA calc.

 Electronic Relaxation 1
   ENCUT  =  245.4 eV  18.04 Ry    4.25 a.u.  19.62 39.24 39.24*2*pi/ulx,y,z
   ENINI  =  245.4     initial cutoff
   ENAUG  =  322.1 eV  augmentation charge cutoff
   NELM   =     40;   NELMIN=  2; NELMDL= -5     # of ELM steps 
   EDIFF  = 0.1E-05   stopping-criterion for ELM
   LREAL  =      T    real-space projection
   NLSPLINE    = F    spline interpolate recip. space projectors
   LCOMPAT=      F    compatible to vasp.4.4
   GGA_COMPAT  = T    GGA compatible to vasp.4.4-vasp.4.6
   LMAXPAW     = -100 max onsite density
   LMAXMIX     =    2 max onsite mixed and CHGCAR
   VOSKOWN=      0    Vosko Wilk Nusair interpolation
   ROPT   =   -0.00050
 Ionic relaxation
   EDIFFG = 0.1E-04   stopping-criterion for IOM
   NSW    =      0    number of steps for IOM
   NBLOCK =      1;   KBLOCK =      1    inner block; outer block 
   IBRION =     -1    ionic relax: 0-MD 1-quasi-New 2-CG
   NFREE  =      1    steps in history (QN), initial steepest desc. (CG)
   ISIF   =      0    stress and relaxation
   IWAVPR =     10    prediction:  0-non 1-charg 2-wave 3-comb
   ISYM   =      2    0-nonsym 1-usesym 2-fastsym
   LCORR  =      T    Harris-Foulkes like correction to forces

   POTIM  = 0.5000    time-step for ionic-motion
   TEIN   =    0.0    initial temperature
   TEBEG  =    0.0;   TEEND  =   0.0 temperature during run
   SMASS  =  -3.00    Nose mass-parameter (am)
   estimated Nose-frequenzy (Omega)   =  0.10E-29 period in steps =****** mass=  -0.539E-26a.u.
   SCALEE = 1.0000    scale energy and forces
   NPACO  =    256;   APACO  = 16.0  distance and # of slots for P.C.
   PSTRESS=    0.0 pullay stress

  Mass of Ions in am
   POMASS =  28.09
  Ionic Valenz
   ZVAL   =   4.00
  Atomic Wigner-Seitz radii
   RWIGS  =  -1.00
  virtual crystal weights 
   VCA    =   1.00
   NELECT =    2048.0000    total number of electrons
   NUPDOWN=      -1.0000    fix difference up-down

 DOS related values:
   EMIN   =  10.00;   EMAX   =-10.00  energy-range for DOS
   EFERMI =   0.00
   ISMEAR =     1;   SIGMA  =   0.20  broadening in eV -4-tet -1-fermi 0-gaus

 Electronic relaxation 2 (details)
   IALGO  =     38    algorithm
   LDIAG  =      T    sub-space diagonalisation (order eigenvalues)
   LSUBROT=      F    optimize rotation matrix (better conditioning)
   TURBO    =      0    0=normal 1=particle mesh
   IRESTART =      0    0=no restart 2=restart with 2 vectors
   NREBOOT  =      0    no. of reboots
   NMIN     =      0    reboot dimension
   EREF     =   0.00    reference energy to select bands
   IMIX   =      4    mixing-type and parameters
     AMIX     =   0.40;   BMIX     =  1.00
     AMIX_MAG =   1.60;   BMIX_MAG =  1.00
     AMIN     =   0.10
     WC   =   100.;   INIMIX=   1;  MIXPRE=   1;  MAXMIX= -45

 Intra band minimization:
   WEIMIN = 0.0000     energy-eigenvalue tresh-hold
   EBREAK =  0.19E-09  absolut break condition
   DEPER  =   0.30     relativ break condition  

   TIME   =   0.40     timestep for ELM

  volume/ion in A,a.u.               =      20.02       135.13
  Fermi-wavevector in a.u.,A,eV,Ry     =   0.956996  1.808460 12.460774  0.915841
  Thomas-Fermi vector in A             =   2.085974
 
 Write flags
   LWAVE        =      F    write WAVECAR
   LDOWNSAMPLE  =      F    k-point downsampling of WAVECAR
   LCHARG       =      F    write CHGCAR
   LVTOT        =      F    write LOCPOT, total local potential
   LVHAR        =      F    write LOCPOT, Hartree potential only
   LELF         =      F    write electronic localiz. function (ELF)
   LORBIT       =      0    0 simple, 1 ext, 2 COOP (PROOUT), +10 PAW based schemes


 Dipole corrections
   LMONO  =      F    monopole corrections only (constant potential shift)
   LDIPOL =      F    correct potential (dipole corrections)
   IDIPOL =      0    1-x, 2-y, 3-z, 4-all directions 
   EPSILON=  1.0000000 bulk dielectric constant

 Exchange correlation treatment:
   GGA     =    --    GGA type
   LEXCH   =     7    internal setting for exchange type
   VOSKOWN=      0    Vosko Wilk Nusair interpolation
   LHFCALC =     F    Hartree Fock is set to
   LHFONE  =     F    Hartree Fock one center treatment
   AEXX    =    0.0000 exact exchange contribution

 Linear response parameters
   LEPSILON=     F    determine dielectric tensor
   LRPA    =     F    only Hartree local field effects (RPA)
   LNABLA  =     F    use nabla operator in PAW spheres
   LVEL    =     F    velocity operator in full k-point grid
   LINTERFAST=   F  fast interpolation
   KINTER  =     0    interpolate to denser k-point grid
   CSHIFT  =0.1000    complex shift for real part using Kramers Kronig
   OMEGAMAX=  -1.0    maximum frequency
   DEG_THRESHOLD= 0.2000000E-02 threshold for treating states as degnerate
   RTIME   =   -0.100 relaxation time in fs
  (WPLASMAI=    0.000 imaginary part of plasma frequency in eV, 0.658/RTIME)
   DFIELD  = 0.0000000 0.0000000 0.0000000 field for delta impulse in time
 
 Orbital magnetization related:
   ORBITALMAG=     F  switch on orbital magnetization
   LCHIMAG   =     F  perturbation theory with respect to B field
   DQ        =  0.001000  dq finite difference perturbation B field
   LLRAUG    =     F  two centre corrections for induced B field



--------------------------------------------------------------------------------------------------------


 Static calculation
 charge density and potential will be updated during run
 non-spin polarized calculation
 Variant of blocked Davidson
 Davidson routine will perform the subspace rotation
 perform sub-space diagonalisation
    after iterative eigenvector-optimisation
 modified Broyden-mixing scheme, WC =      100.0
 initial mixing is a Kerker type mixing with AMIX =  0.4000 and BMIX =      1.0000
 Hartree-type preconditioning will be used
 using additional bands          260
 real space projection scheme for non local part
 use partial core corrections
 calculate Harris-corrections to forces 
   (improved forces if not selfconsistent)
 use gradient corrections 
 use of overlap-Matrix (Vanderbilt PP)
 Methfessel and Paxton  Order N= 1 SIGMA  =   0.20


--------------------------------------------------------------------------------------------------------


  energy-cutoff  :      245.44
  volume of cell :    10252.37
      direct lattice vectors                 reciprocal lattice vectors
   -10.862041010  0.000000000 10.862041010    -0.046031865 -0.046031865  0.046031865
     0.000000000 21.724082020 21.724082020     0.023015932  0.023015932  0.023015932
   -21.724082020 21.724082020  0.000000000    -0.023015932  0.023015932 -0.023015932

  length of vectors
    15.361245711 30.722491423 30.722491423     0.079729528  0.039864764  0.039864764


 
 k-points in units of 2pi/SCALE and weight: Automatic mesh                          
   0.00000000  0.00000000  0.00000000       1.000
 
 k-points in reciprocal lattice and weights: Automatic mesh                          
   0.00000000  0.00000000  0.00000000       1.000
 
 position of ions in fractional coordinates (direct lattice) 
   0.00000000  0.00000000  0.00000000
   0.06250000  0.03125000  0.03125000
   0.00000000  0.00000000  0.12500000
   0.06250000  0.03125000  0.15625000
   0.00000000  0.00000000  0.25000000
   0.06250000  0.03125000  0.28125000
   0.00000000  0.00000000  0.37500000
   0.06250000  0.03125000  0.40625000
   0.00000000  0.00000000  0.50000000
   0.06250000  0.03125000  0.53125000
   0.00000000  0.00000000  0.62500000
   0.06250000  0.03125000  0.65625000
   0.00000000  0.00000000  0.75000000
   0.06250000  0.03125000  0.78125000
   0.00000000  0.00000000  0.87500000
   0.06250000  0.03125000  0.90625000
   0.00000000  0.12500000  0.00000000
   0.06250000  0.15625000  0.03125000
   0.00000000  0.12500000  0.12500000
   0.06250000  0.15625000  0.15625000
   0.00000000  0.12500000  0.25000000
   0.06250000  0.15625000  0.28125000
   0.00000000  0.12500000  0.37500000
   0.06250000  0.15625000  0.40625000
   0.00000000  0.12500000  0.50000000
   0.06250000  0.15625000  0.53125000
   0.00000000  0.12500000  0.62500000
   0.06250000  0.15625000  0.65625000
   0.00000000  0.12500000  0.75000000
   0.06250000  0.15625000  0.78125000
   0.00000000  0.12500000  0.87500000
   0.06250000  0.15625000  0.90625000
   0.00000000  0.25000000  0.00000000
   0.06250000  0.28125000  0.03125000
   0.00000000  0.25000000  0.12500000
   0.06250000  0.28125000  0.15625000
   0.00000000  0.25000000  0.25000000
   0.06250000  0.28125000  0.28125000
   0.00000000  0.25000000  0.37500000
   0.06250000  0.28125000  0.40625000
   0.00000000  0.25000000  0.50000000
   0.06250000  0.28125000  0.53125000
   0.00000000  0.25000000  0.62500000
   0.06250000  0.28125000  0.65625000
   0.00000000  0.25000000  0.75000000
   0.06250000  0.28125000  0.78125000
   0.00000000  0.25000000  0.87500000
   0.06250000  0.28125000  0.90625000
   0.00000000  0.37500000  0.00000000
   0.06250000  0.40625000  0.03125000
   0.00000000  0.37500000  0.12500000
   0.06250000  0.40625000  0.15625000
   0.00000000  0.37500000  0.25000000
   0.06250000  0.40625000  0.28125000
   0.00000000  0.37500000  0.37500000
   0.06250000  0.40625000  0.40625000
   0.00000000  0.37500000  0.50000000
   0.06250000  0.40625000  0.53125000
   0.00000000  0.37500000  0.62500000
   0.06250000  0.40625000  0.65625000
   0.00000000  0.37500000  0.75000000
   0.06250000  0.40625000  0.78125000
   0.00000000  0.37500000  0.87500000
   0.06250000  0.40625000  0.90625000
   0.00000000  0.50000000  0.00000000
   0.06250000  0.53125000  0.03125000
   0.00000000  0.50000000  0.12500000
   0.06250000  0.53125000  0.15625000
   0.00000000  0.50000000  0.25000000
   0.06250000  0.53125000  0.28125000
   0.00000000  0.50000000  0.37500000
   0.06250000  0.53125000  0.40625000
   0.00000000  0.50000000  0.50000000
   0.06250000  0.53125000  0.53125000
   0.00000000  0.50000000  0.62500000
   0.06250000  0.53125000  0.65625000
   0.00000000  0.50000000  0.75000000
   0.06250000  0.53125000  0.78125000
   0.00000000  0.50000000  0.87500000
   0.06250000  0.53125000  0.90625000
   0.00000000  0.62500000  0.00000000
   0.06250000  0.65625000  0.03125000
   0.00000000  0.62500000  0.12500000
   0.06250000  0.65625000  0.15625000
   0.00000000  0.62500000  0.25000000
   0.06250000  0.65625000  0.28125000
   0.00000000  0.62500000  0.37500000
   0.06250000  0.65625000  0.40625000
   0.00000000  0.62500000  0.50000000
   0.06250000  0.65625000  0.53125000
   0.00000000  0.62500000  0.62500000
   0.06250000  0.65625000  0.65625000
   0.00000000  0.62500000  0.75000000
   0.06250000  0.65625000  0.78125000
   0.00000000  0.62500000  0.87500000
   0.06250000  0.65625000  0.90625000
   0.00000000  0.75000000  0.00000000
   0.06250000  0.78125000  0.03125000
   0.00000000  0.75000000  0.12500000
   0.06250000  0.78125000  0.15625000
   0.00000000  0.75000000  0.25000000
   0.06250000  0.78125000  0.28125000
   0.00000000  0.75000000  0.37500000
   0.06250000  0.78125000  0.40625000
   0.00000000  0.75000000  0.50000000
   0.06250000  0.78125000  0.53125000
   0.00000000  0.75000000  0.62500000
   0.06250000  0.78125000  0.65625000
   0.00000000  0.75000000  0.75000000
   0.06250000  0.78125000  0.78125000
   0.00000000  0.75000000  0.87500000
   0.06250000  0.78125000  0.90625000
   0.00000000  0.87500000  0.00000000
   0.06250000  0.90625000  0.03125000
   0.00000000  0.87500000  0.12500000
   0.06250000  0.90625000  0.15625000
   0.00000000  0.87500000  0.25000000
   0.06250000  0.90625000  0.28125000
   0.00000000  0.87500000  0.37500000
   0.06250000  0.90625000  0.40625000
   0.00000000  0.87500000  0.50000000
   0.06250000  0.90625000  0.53125000
   0.00000000  0.87500000  0.62500000
   0.06250000  0.90625000  0.65625000
   0.00000000  0.87500000  0.75000000
   0.06250000  0.90625000  0.78125000
   0.00000000  0.87500000  0.87500000
   0.06250000  0.90625000  0.90625000
   0.25000000  0.00000000  0.00000000
   0.31250000  0.03125000  0.03125000
   0.25000000  0.00000000  0.12500000
   0.31250000  0.03125000  0.15625000
   0.25000000  0.00000000  0.25000000
   0.31250000  0.03125000  0.28125000
   0.25000000  0.00000000  0.37500000
   0.31250000  0.03125000  0.40625000
   0.25000000  0.00000000  0.50000000
   0.31250000  0.03125000  0.53125000
   0.25000000  0.00000000  0.62500000
   0.31250000  0.03125000  0.65625000
   0.25000000  0.00000000  0.75000000
   0.31250000  0.03125000  0.78125000
   0.25000000  0.00000000  0.87500000
   0.31250000  0.03125000  0.90625000
   0.25000000  0.12500000  0.00000000
   0.31250000  0.15625000  0.03125000
   0.25000000  0.12500000  0.12500000
   0.31250000  0.15625000  0.15625000
   0.25000000  0.12500000  0.25000000
   0.31250000  0.15625000  0.28125000
   0.25000000  0.12500000  0.37500000
   0.31250000  0.15625000  0.40625000
   0.25000000  0.12500000  0.50000000
   0.31250000  0.15625000  0.53125000
   0.25000000  0.12500000  0.62500000
   0.31250000  0.15625000  0.65625000
   0.25000000  0.12500000  0.75000000
   0.31250000  0.15625000  0.78125000
   0.25000000  0.12500000  0.87500000
   0.31250000  0.15625000  0.90625000
   0.25000000  0.25000000  0.00000000
   0.31250000  0.28125000  0.03125000
   0.25000000  0.25000000  0.12500000
   0.31250000  0.28125000  0.15625000
   0.25000000  0.25000000  0.25000000
   0.31250000  0.28125000  0.28125000
   0.25000000  0.25000000  0.37500000
   0.31250000  0.28125000  0.40625000
   0.25000000  0.25000000  0.50000000
   0.31250000  0.28125000  0.53125000
   0.25000000  0.25000000  0.62500000
   0.31250000  0.28125000  0.65625000
   0.25000000  0.25000000  0.75000000
   0.31250000  0.28125000  0.78125000
   0.25000000  0.25000000  0.87500000
   0.31250000  0.28125000  0.90625000
   0.25000000  0.37500000  0.00000000
   0.31250000  0.40625000  0.03125000
   0.25000000  0.37500000  0.12500000
   0.31250000  0.40625000  0.15625000
   0.25000000  0.37500000  0.25000000
   0.31250000  0.40625000  0.28125000
   0.25000000  0.37500000  0.37500000
   0.31250000  0.40625000  0.40625000
   0.25000000  0.37500000  0.50000000
   0.31250000  0.40625000  0.53125000
   0.25000000  0.37500000  0.62500000
   0.31250000  0.40625000  0.65625000
   0.25000000  0.37500000  0.75000000
   0.31250000  0.40625000  0.78125000
   0.25000000  0.37500000  0.87500000
   0.31250000  0.40625000  0.90625000
   0.25000000  0.50000000  0.00000000
   0.31250000  0.53125000  0.03125000
   0.25000000  0.50000000  0.12500000
   0.31250000  0.53125000  0.15625000
   0.25000000  0.50000000  0.25000000
   0.31250000  0.53125000  0.28125000
   0.25000000  0.50000000  0.37500000
   0.31250000  0.53125000  0.40625000
   0.25000000  0.50000000  0.50000000
   0.31250000  0.53125000  0.53125000
   0.25000000  0.50000000  0.62500000
   0.31250000  0.53125000  0.65625000
   0.25000000  0.50000000  0.75000000
   0.31250000  0.53125000  0.78125000
   0.25000000  0.50000000  0.87500000
   0.31250000  0.53125000  0.90625000
   0.25000000  0.62500000  0.00000000
   0.31250000  0.65625000  0.03125000
   0.25000000  0.62500000  0.12500000
   0.31250000  0.65625000  0.15625000
   0.25000000  0.62500000  0.25000000
   0.31250000  0.65625000  0.28125000
   0.25000000  0.62500000  0.37500000
   0.31250000  0.65625000  0.40625000
   0.25000000  0.62500000  0.50000000
   0.31250000  0.65625000  0.53125000
   0.25000000  0.62500000  0.62500000
   0.31250000  0.65625000  0.65625000
   0.25000000  0.62500000  0.75000000
   0.31250000  0.65625000  0.78125000
   0.25000000  0.62500000  0.87500000
   0.31250000  0.65625000  0.90625000
   0.25000000  0.75000000  0.00000000
   0.31250000  0.78125000  0.03125000
   0.25000000  0.75000000  0.12500000
   0.31250000  0.78125000  0.15625000
   0.25000000  0.75000000  0.25000000
   0.31250000  0.78125000  0.28125000
   0.25000000  0.75000000  0.37500000
   0.31250000  0.78125000  0.40625000
   0.25000000  0.75000000  0.50000000
   0.31250000  0.78125000  0.53125000
   0.25000000  0.75000000  0.62500000
   0.31250000  0.78125000  0.65625000
   0.25000000  0.75000000  0.75000000
   0.31250000  0.78125000  0.78125000
   0.25000000  0.75000000  0.87500000
   0.31250000  0.78125000  0.90625000
   0.25000000  0.87500000  0.00000000
   0.31250000  0.90625000  0.03125000
   0.25000000  0.87500000  0.12500000
   0.31250000  0.90625000  0.15625000
   0.25000000  0.87500000  0.25000000
   0.31250000  0.90625000  0.28125000
   0.25000000  0.87500000  0.37500000
   0.31250000  0.90625000  0.40625000
   0.25000000  0.87500000  0.50000000
   0.31250000  0.90625000  0.53125000
   0.25000000  0.87500000  0.62500000
   0.31250000  0.90625000  0.65625000
   0.25000000  0.87500000  0.75000000
   0.31250000  0.90625000  0.78125000
   0.25000000  0.87500000  0.87500000
   0.31250000  0.90625000  0.90625000
   0.50000000  0.00000000  0.00000000
   0.56250000  0.03125000  0.03125000
   0.50000000  0.00000000  0.12500000
   0.56250000  0.03125000  0.15625000
   0.50000000  0.00000000  0.25000000
   0.56250000  0.03125000  0.28125000
   0.50000000  0.00000000  0.37500000
   0.56250000  0.03125000  0.40625000
   0.50000000  0.00000000  0.50000000
   0.56250000  0.03125000  0.53125000
   0.50000000  0.00000000  0.62500000
   0.56250000  0.03125000  0.65625000
   0.50000000  0.00000000  0.75000000
   0.56250000  0.03125000  0.78125000
   0.50000000  0.00000000  0.87500000
   0.56250000  0.03125000  0.90625000
   0.50000000  0.12500000  0.00000000
   0.56250000  0.15625000  0.03125000
   0.50000000  0.12500000  0.12500000
   0.56250000  0.15625000  0.15625000
   0.50000000  0.12500000  0.25000000
   0.56250000  0.15625000  0.28125000
   0.50000000  0.12500000  0.37500000
   0.56250000  0.15625000  0.40625000
   0.50000000  0.12500000  0.50000000
   0.56250000  0.15625000  0.53125000
   0.50000000  0.12500000  0.62500000
   0.56250000  0.15625000  0.65625000
   0.50000000  0.12500000  0.75000000
   0.56250000  0.15625000  0.78125000
   0.50000000  0.12500000  0.87500000
   0.56250000  0.15625000  0.90625000
   0.50000000  0.25000000  0.00000000
   0.56250000  0.28125000  0.03125000
   0.50000000  0.25000000  0.12500000
   0.56250000  0.28125000  0.15625000
   0.50000000  0.25000000  0.25000000
   0.56250000  0.28125000  0.28125000
   0.50000000  0.25000000  0.37500000
   0.56250000  0.28125000  0.40625000
   0.50000000  0.25000000  0.50000000
   0.56250000  0.28125000  0.53125000
   0.50000000  0.25000000  0.62500000
   0.56250000  0.28125000  0.65625000
   0.50000000  0.25000000  0.75000000
   0.56250000  0.28125000  0.78125000
   0.50000000  0.25000000  0.87500000
   0.56250000  0.28125000  0.90625000
   0.50000000  0.37500000  0.00000000
   0.56250000  0.40625000  0.03125000
   0.50000000  0.37500000  0.12500000
   0.56250000  0.40625000  0.15625000
   0.50000000  0.37500000  0.25000000
   0.56250000  0.40625000  0.28125000
   0.50000000  0.37500000  0.37500000
   0.56250000  0.40625000  0.40625000
   0.50000000  0.37500000  0.50000000
   0.56250000  0.40625000  0.53125000
   0.50000000  0.37500000  0.62500000
   0.56250000  0.40625000  0.65625000
   0.50000000  0.37500000  0.75000000
   0.56250000  0.40625000  0.78125000
   0.50000000  0.37500000  0.87500000
   0.56250000  0.40625000  0.90625000
   0.50000000  0.50000000  0.00000000
   0.56250000  0.53125000  0.03125000
   0.50000000  0.50000000  0.12500000
   0.56250000  0.53125000  0.15625000
   0.50000000  0.50000000  0.25000000
   0.56250000  0.53125000  0.28125000
   0.50000000  0.50000000  0.37500000
   0.56250000  0.53125000  0.40625000
   0.50000000  0.50000000  0.50000000
   0.56250000  0.53125000  0.53125000
   0.50000000  0.50000000  0.62500000
   0.56250000  0.53125000  0.65625000
   0.50000000  0.50000000  0.75000000
   0.56250000  0.53125000  0.78125000
   0.50000000  0.50000000  0.87500000
   0.56250000  0.53125000  0.90625000
   0.50000000  0.62500000  0.00000000
   0.56250000  0.65625000  0.03125000
   0.50000000  0.62500000  0.12500000
   0.56250000  0.65625000  0.15625000
   0.50000000  0.62500000  0.25000000
   0.56250000  0.65625000  0.28125000
   0.50000000  0.62500000  0.37500000
   0.56250000  0.65625000  0.40625000
   0.50000000  0.62500000  0.50000000
   0.56250000  0.65625000  0.53125000
   0.50000000  0.62500000  0.62500000
   0.56250000  0.65625000  0.65625000
   0.50000000  0.62500000  0.75000000
   0.56250000  0.65625000  0.78125000
   0.50000000  0.62500000  0.87500000
   0.56250000  0.65625000  0.90625000
   0.50000000  0.75000000  0.00000000
   0.56250000  0.78125000  0.03125000
   0.50000000  0.75000000  0.12500000
   0.56250000  0.78125000  0.15625000
   0.50000000  0.75000000  0.25000000
   0.56250000  0.78125000  0.28125000
   0.50000000  0.75000000  0.37500000
   0.56250000  0.78125000  0.40625000
   0.50000000  0.75000000  0.50000000
   0.56250000  0.78125000  0.53125000
   0.50000000  0.75000000  0.62500000
   0.56250000  0.78125000  0.65625000
   0.50000000  0.75000000  0.75000000
   0.56250000  0.78125000  0.78125000
   0.50000000  0.75000000  0.87500000
   0.56250000  0.78125000  0.90625000
   0.50000000  0.87500000  0.00000000
   0.56250000  0.90625000  0.03125000
   0.50000000  0.87500000  0.12500000
   0.56250000  0.90625000  0.15625000
   0.50000000  0.87500000  0.25000000
   0.56250000  0.90625000  0.28125000
   0.50000000  0.87500000  0.37500000
   0.56250000  0.90625000  0.40625000
   0.50000000  0.87500000  0.50000000
   0.56250000  0.90625000  0.53125000
   0.50000000  0.87500000  0.62500000
   0.56250000  0.90625000  0.65625000
   0.50000000  0.87500000  0.75000000
   0.56250000  0.90625000  0.78125000
   0.50000000  0.87500000  0.87500000
   0.56250000  0.90625000  0.90625000
   0.75000000  0.00000000  0.00000000
   0.81250000  0.03125000  0.03125000
   0.75000000  0.00000000  0.12500000
   0.81250000  0.03125000  0.15625000
   0.75000000  0.00000000  0.25000000
   0.81250000  0.03125000  0.28125000
   0.75000000  0.00000000  0.37500000
   0.81250000  0.03125000  0.40625000
   0.75000000  0.00000000  0.50000000
   0.81250000  0.03125000  0.53125000
   0.75000000  0.00000000  0.62500000
   0.81250000  0.03125000  0.65625000
   0.75000000  0.00000000  0.75000000
   0.81250000  0.03125000  0.78125000
   0.75000000  0.00000000  0.87500000
   0.81250000  0.03125000  0.90625000
   0.75000000  0.12500000  0.00000000
   0.81250000  0.15625000  0.03125000
   0.75000000  0.12500000  0.12500000
   0.81250000  0.15625000  0.15625000
   0.75000000  0.12500000  0.25000000
   0.81250000  0.15625000  0.28125000
   0.75000000  0.12500000  0.37500000
   0.81250000  0.15625000  0.40625000
   0.75000000  0.12500000  0.50000000
   0.81250000  0.15625000  0.53125000
   0.75000000  0.12500000  0.62500000
   0.81250000  0.15625000  0.65625000
   0.75000000  0.12500000  0.75000000
   0.81250000  0.15625000  0.78125000
   0.75000000  0.12500000  0.87500000
   0.81250000  0.15625000  0.90625000
   0.75000000  0.25000000  0.00000000
   0.81250000  0.28125000  0.03125000
   0.75000000  0.25000000  0.12500000
   0.81250000  0.28125000  0.15625000
   0.75000000  0.25000000  0.25000000
   0.81250000  0.28125000  0.28125000
   0.75000000  0.25000000  0.37500000
   0.81250000  0.28125000  0.40625000
   0.75000000  0.25000000  0.50000000
   0.81250000  0.28125000  0.53125000
   0.75000000  0.25000000  0.62500000
   0.81250000  0.28125000  0.65625000
   0.75000000  0.25000000  0.75000000
   0.81250000  0.28125000  0.78125000
   0.75000000  0.25000000  0.87500000
   0.81250000  0.28125000  0.90625000
   0.75000000  0.37500000  0.00000000
   0.81250000  0.40625000  0.03125000
   0.75000000  0.37500000  0.12500000
   0.81250000  0.40625000  0.15625000
   0.75000000  0.37500000  0.25000000
   0.81250000  0.40625000  0.28125000
   0.75000000  0.37500000  0.37500000
   0.81250000  0.40625000  0.40625000
   0.75000000  0.37500000  0.50000000
   0.81250000  0.40625000  0.53125000
   0.75000000  0.37500000  0.62500000
   0.81250000  0.40625000  0.65625000
   0.75000000  0.37500000  0.75000000
   0.81250000  0.40625000  0.78125000
   0.75000000  0.37500000  0.87500000
   0.81250000  0.40625000  0.90625000
   0.75000000  0.50000000  0.00000000
   0.81250000  0.53125000  0.03125000
   0.75000000  0.50000000  0.12500000
   0.81250000  0.53125000  0.15625000
   0.75000000  0.50000000  0.25000000
   0.81250000  0.53125000  0.28125000
   0.75000000  0.50000000  0.37500000
   0.81250000  0.53125000  0.40625000
   0.75000000  0.50000000  0.50000000
   0.81250000  0.53125000  0.53125000
   0.75000000  0.50000000  0.62500000
   0.81250000  0.53125000  0.65625000
   0.75000000  0.50000000  0.75000000
   0.81250000  0.53125000  0.78125000
   0.75000000  0.50000000  0.87500000
   0.81250000  0.53125000  0.90625000
   0.75000000  0.62500000  0.00000000
   0.81250000  0.65625000  0.03125000
   0.75000000  0.62500000  0.12500000
   0.81250000  0.65625000  0.15625000
   0.75000000  0.62500000  0.25000000
   0.81250000  0.65625000  0.28125000
   0.75000000  0.62500000  0.37500000
   0.81250000  0.65625000  0.40625000
   0.75000000  0.62500000  0.50000000
   0.81250000  0.65625000  0.53125000
   0.75000000  0.62500000  0.62500000
   0.81250000  0.65625000  0.65625000
   0.75000000  0.62500000  0.75000000
   0.81250000  0.65625000  0.78125000
   0.75000000  0.62500000  0.87500000
   0.81250000  0.65625000  0.90625000
   0.75000000  0.75000000  0.00000000
   0.81250000  0.78125000  0.03125000
   0.75000000  0.75000000  0.12500000
   0.81250000  0.78125000  0.15625000
   0.75000000  0.75000000  0.25000000
   0.81250000  0.78125000  0.28125000
   0.75000000  0.75000000  0.37500000
   0.81250000  0.78125000  0.40625000
   0.75000000  0.75000000  0.50000000
   0.81250000  0.78125000  0.53125000
   0.75000000  0.75000000  0.62500000
   0.81250000  0.78125000  0.65625000
   0.75000000  0.75000000  0.75000000
   0.81250000  0.78125000  0.78125000
   0.75000000  0.75000000  0.87500000
   0.81250000  0.78125000  0.90625000
   0.75000000  0.87500000  0.00000000
   0.81250000  0.90625000  0.03125000
   0.75000000  0.87500000  0.12500000
   0.81250000  0.90625000  0.15625000
   0.75000000  0.87500000  0.25000000
   0.81250000  0.90625000  0.28125000
   0.75000000  0.87500000  0.37500000
   0.81250000  0.90625000  0.40625000
   0.75000000  0.87500000  0.50000000
   0.81250000  0.90625000  0.53125000
   0.75000000  0.87500000  0.62500000
   0.81250000  0.90625000  0.65625000
   0.75000000  0.87500000  0.75000000
   0.81250000  0.90625000  0.78125000
   0.75000000  0.87500000  0.87500000
   0.81250000  0.90625000  0.90625000
 
 position of ions in cartesian coordinates  (Angst):
   0.00000000  0.00000000  0.00000000
  -1.35775513  1.35775513  1.35775513
  -2.71551025  2.71551025  0.00000000
  -4.07326538  4.07326538  1.35775513
  -5.43102051  5.43102051  0.00000000
  -6.78877563  6.78877563  1.35775513
  -8.14653076  8.14653076  0.00000000
  -9.50428588  9.50428588  1.35775513
 -10.86204101 10.86204101  0.00000000
 -12.21979614 12.21979614  1.35775513
 -13.57755126 13.57755126  0.00000000
 -14.93530639 14.93530639  1.35775513
 -16.29306152 16.29306152  0.00000000
 -17.65081664 17.65081664  1.35775513
 -19.00857177 19.00857177  0.00000000
 -20.36632689 20.36632689  1.35775513
   0.00000000  2.71551025  2.71551025
  -1.35775513  4.07326538  4.07326538
  -2.71551025  5.43102051  2.71551025
  -4.07326538  6.78877563  4.07326538
  -5.43102051  8.14653076  2.71551025
  -6.78877563  9.50428588  4.07326538
  -8.14653076 10.86204101  2.71551025
  -9.50428588 12.21979614  4.07326538
 -10.86204101 13.57755126  2.71551025
 -12.21979614 14.93530639  4.07326538
 -13.57755126 16.29306152  2.71551025
 -14.93530639 17.65081664  4.07326538
 -16.29306152 19.00857177  2.71551025
 -17.65081664 20.36632689  4.07326538
 -19.00857177 21.72408202  2.71551025
 -20.36632689 23.08183715  4.07326538
   0.00000000  5.43102051  5.43102051
  -1.35775513  6.78877563  6.78877563
  -2.71551025  8.14653076  5.43102051
  -4.07326538  9.50428588  6.78877563
  -5.43102051 10.86204101  5.43102051
  -6.78877563 12.21979614  6.78877563
  -8.14653076 13.57755126  5.43102051
  -9.50428588 14.93530639  6.78877563
 -10.86204101 16.29306152  5.43102051
 -12.21979614 17.65081664  6.78877563
 -13.57755126 19.00857177  5.43102051
 -14.93530639 20.36632689  6.78877563
 -16.29306152 21.72408202  5.43102051
 -17.65081664 23.08183715  6.78877563
 -19.00857177 24.43959227  5.43102051
 -20.36632689 25.79734740  6.78877563
   0.00000000  8.14653076  8.14653076
  -1.35775513  9.50428588  9.50428588
  -2.71551025 10.86204101  8.14653076
  -4.07326538 12.21979614  9.50428588
  -5.43102051 13.57755126  8.14653076
  -6.78877563 14.93530639  9.50428588
  -8.14653076 16.29306152  8.14653076
  -9.50428588 17.65081664  9.50428588
 -10.86204101 19.00857177  8.14653076
 -12.21979614 20.36632689  9.50428588
 -13.57755126 21.72408202  8.14653076
 -14.93530639 23.08183715  9.50428588
 -16.29306152 24.43959227  8.14653076
 -17.65081664 25.79734740  9.50428588
 -19.00857177 27.15510253  8.14653076
 -20.36632689 28.51285765  9.50428588
   0.00000000 10.86204101 10.86204101
  -1.35775513 12.21979614 12.21979614
  -2.71551025 13.57755126 10.86204101
  -4.07326538 14.93530639 12.21979614
  -5.43102051 16.29306152 10.86204101
  -6.78877563 17.65081664 12.21979614
  -8.14653076 19.00857177 10.86204101
  -9.50428588 20.36632689 12.21979614
 -10.86204101 21.72408202 10.86204101
 -12.21979614 23.08183715 12.21979614
 -13.57755126 24.43959227 10.86204101
 -14.93530639 25.79734740 12.21979614
 -16.29306152 27.15510253 10.86204101
 -17.65081664 28.51285765 12.21979614
 -19.00857177 29.87061278 10.86204101
 -20.36632689 31.22836790 12.21979614
   0.00000000 13.57755126 13.57755126
  -1.35775513 14.93530639 14.93530639
  -2.71551025 16.29306152 13.57755126
  -4.07326538 17.65081664 14.93530639
  -5.43102051 19.00857177 13.57755126
  -6.78877563 20.36632689 14.93530639
  -8.14653076 21.72408202 13.57755126
  -9.50428588 23.08183715 14.93530639
 -10.86204101 24.43959227 13.57755126
 -12.21979614 25.79734740 14.93530639
 -13.57755126 27.15510253 13.57755126
 -14.93530639 28.51285765 14.93530639
 -16.29306152 29.87061278 13.57755126
 -17.65081664 31.22836790 14.93530639
 -19.00857177 32.58612303 13.57755126
 -20.36632689 33.94387816 14.93530639
   0.00000000 16.29306152 16.29306152
  -1.35775513 17.65081664 17.65081664
  -2.71551025 19.00857177 16.29306152
  -4.07326538 20.36632689 17.65081664
  -5.43102051 21.72408202 16.29306152
  -6.78877563 23.08183715 17.65081664
  -8.14653076 24.43959227 16.29306152
  -9.50428588 25.79734740 17.65081664
 -10.86204101 27.15510253 16.29306152
 -12.21979614 28.51285765 17.65081664
 -13.57755126 29.87061278 16.29306152
 -14.93530639 31.22836790 17.65081664
 -16.29306152 32.58612303 16.29306152
 -17.65081664 33.94387816 17.65081664
 -19.00857177 35.30163328 16.29306152
 -20.36632689 36.65938841 17.65081664
   0.00000000 19.00857177 19.00857177
  -1.35775513 20.36632689 20.36632689
  -2.71551025 21.72408202 19.00857177
  -4.07326538 23.08183715 20.36632689
  -5.43102051 24.43959227 19.00857177
  -6.78877563 25.79734740 20.36632689
  -8.14653076 27.15510253 19.00857177
  -9.50428588 28.51285765 20.36632689
 -10.86204101 29.87061278 19.00857177
 -12.21979614 31.22836790 20.36632689
 -13.57755126 32.58612303 19.00857177
 -14.93530639 33.94387816 20.36632689
 -16.29306152 35.30163328 19.00857177
 -17.65081664 36.65938841 20.36632689
 -19.00857177 38.01714354 19.00857177
 -20.36632689 39.37489866 20.36632689
  -2.71551025  0.00000000  2.71551025
  -4.07326538  1.35775513  4.07326538
  -5.43102051  2.71551025  2.71551025
  -6.78877563  4.07326538  4.07326538
  -8.14653076  5.43102051  2.71551025
  -9.50428588  6.78877563  4.07326538
 -10.86204101  8.14653076  2.71551025
 -12.21979614  9.50428588  4.07326538
 -13.57755126 10.86204101  2.71551025
 -14.93530639 12.21979614  4.07326538
 -16.29306152 13.57755126  2.71551025
 -17.65081664 14.93530639  4.07326538
 -19.00857177 16.29306152  2.71551025
 -20.36632689 17.65081664  4.07326538
 -21.72408202 19.00857177  2.71551025
 -23.08183715 20.36632689  4.07326538
  -2.71551025  2.71551025  5.43102051
  -4.07326538  4.07326538  6.78877563
  -5.43102051  5.43102051  5.43102051
  -6.78877563  6.78877563  6.78877563
  -8.14653076  8.14653076  5.43102051
  -9.50428588  9.50428588  6.78877563
 -10.86204101 10.86204101  5.43102051
 -12.21979614 12.21979614  6.78877563
 -13.57755126 13.57755126  5.43102051
 -14.93530639 14.93530639  6.78877563
 -16.29306152 16.29306152  5.43102051
 -17.65081664 17.65081664  6.78877563
 -19.00857177 19.00857177  5.43102051
 -20.36632689 20.36632689  6.78877563
 -21.72408202 21.72408202  5.43102051
 -23.08183715 23.08183715  6.78877563
  -2.71551025  5.43102051  8.14653076
  -4.07326538  6.78877563  9.50428588
  -5.43102051  8.14653076  8.14653076
  -6.78877563  9.50428588  9.50428588
  -8.14653076 10.86204101  8.14653076
  -9.50428588 12.21979614  9.50428588
 -10.86204101 13.57755126  8.14653076
 -12.21979614 14.93530639  9.50428588
 -13.57755126 16.29306152  8.14653076
 -14.93530639 17.65081664  9.50428588
 -16.29306152 19.00857177  8.14653076
 -17.65081664 20.36632689  9.50428588
 -19.00857177 21.72408202  8.14653076
 -20.36632689 23.08183715  9.50428588
 -21.72408202 24.43959227  8.14653076
 -23.08183715 25.79734740  9.50428588
  -2.71551025  8.14653076 10.86204101
  -4.07326538  9.50428588 12.21979614
  -5.43102051 10.86204101 10.86204101
  -6.78877563 12.21979614 12.21979614
  -8.14653076 13.57755126 10.86204101
  -9.50428588 14.93530639 12.21979614
 -10.86204101 16.29306152 10.86204101
 -12.21979614 17.65081664 12.21979614
 -13.57755126 19.00857177 10.86204101
 -14.93530639 20.36632689 12.21979614
 -16.29306152 21.72408202 10.86204101
 -17.65081664 23.08183715 12.21979614
 -19.00857177 24.43959227 10.86204101
 -20.36632689 25.79734740 12.21979614
 -21.72408202 27.15510253 10.86204101
 -23.08183715 28.51285765 12.21979614
  -2.71551025 10.86204101 13.57755126
  -4.07326538 12.21979614 14.93530639
  -5.43102051 13.57755126 13.57755126
  -6.78877563 14.93530639 14.93530639
  -8.14653076 16.29306152 13.57755126
  -9.50428588 17.65081664 14.93530639
 -10.86204101 19.00857177 13.57755126
 -12.21979614 20.36632689 14.93530639
 -13.57755126 21.72408202 13.57755126
 -14.93530639 23.08183715 14.93530639
 -16.29306152 24.43959227 13.57755126
 -17.65081664 25.79734740 14.93530639
 -19.00857177 27.15510253 13.57755126
 -20.36632689 28.51285765 14.93530639
 -21.72408202 29.87061278 13.57755126
 -23.08183715 31.22836790 14.93530639
  -2.71551025 13.57755126 16.29306152
  -4.07326538 14.93530639 17.65081664
  -5.43102051 16.29306152 16.29306152
  -6.78877563 17.65081664 17.65081664
  -8.14653076 19.00857177 16.29306152
  -9.50428588 20.36632689 17.65081664
 -10.86204101 21.72408202 16.29306152
 -12.21979614 23.08183715 17.65081664
 -13.57755126 24.43959227 16.29306152
 -14.93530639 25.79734740 17.65081664
 -16.29306152 27.15510253 16.29306152
 -17.65081664 28.51285765 17.65081664
 -19.00857177 29.87061278 16.29306152
 -20.36632689 31.22836790 17.65081664
 -21.72408202 32.58612303 16.29306152
 -23.08183715 33.94387816 17.65081664
  -2.71551025 16.29306152 19.00857177
  -4.07326538 17.65081664 20.36632689
  -5.43102051 19.00857177 19.00857177
  -6.78877563 20.36632689 20.36632689
  -8.14653076 21.72408202 19.00857177
  -9.50428588 23.08183715 20.36632689
 -10.86204101 24.43959227 19.00857177
 -12.21979614 25.79734740 20.36632689
 -13.57755126 27.15510253 19.00857177
 -14.93530639 28.51285765 20.36632689
 -16.29306152 29.87061278 19.00857177
 -17.65081664 31.22836790 20.36632689
 -19.00857177 32.58612303 19.00857177
 -20.36632689 33.94387816 20.36632689
 -21.72408202 35.30163328 19.00857177
 -23.08183715 36.65938841 20.36632689
  -2.71551025 19.00857177 21.72408202
  -4.07326538 20.36632689 23.08183715
  -5.43102051 21.72408202 21.72408202
  -6.78877563 23.08183715 23.08183715
  -8.14653076 24.43959227 21.72408202
  -9.50428588 25.79734740 23.08183715
 -10.86204101 27.15510253 21.72408202
 -12.21979614 28.51285765 23.08183715
 -13.57755126 29.87061278 21.72408202
 -14.93530639 31.22836790 23.08183715
 -16.29306152 32.58612303 21.72408202
 -17.65081664 33.94387816 23.08183715
 -19.00857177 35.30163328 21.72408202
 -20.36632689 36.65938841 23.08183715
 -21.72408202 38.01714354 21.72408202
 -23.08183715 39.37489866 23.08183715
  -5.43102051  0.00000000  5.43102051
  -6.78877563  1.35775513  6.78877563
  -8.14653076  2.71551025  5.43102051
  -9.50428588  4.07326538  6.78877563
 -10.86204101  5.43102051  5.43102051
 -12.21979614  6.78877563  6.78877563
 -13.57755126  8.14653076  5.43102051
 -14.93530639  9.50428588  6.78877563
 -16.29306152 10.86204101  5.43102051
 -17.65081664 12.21979614  6.78877563
 -19.00857177 13.57755126  5.43102051
 -20.36632689 14.93530639  6.78877563
 -21.72408202 16.29306152  5.43102051
 -23.08183715 17.65081664  6.78877563
 -24.43959227 19.00857177  5.43102051
 -25.79734740 20.36632689  6.78877563
  -5.43102051  2.71551025  8.14653076
  -6.78877563  4.07326538  9.50428588
  -8.14653076  5.43102051  8.14653076
  -9.50428588  6.78877563  9.50428588
 -10.86204101  8.14653076  8.14653076
 -12.21979614  9.50428588  9.50428588
 -13.57755126 10.86204101  8.14653076
 -14.93530639 12.21979614  9.50428588
 -16.29306152 13.57755126  8.14653076
 -17.65081664 14.93530639  9.50428588
 -19.00857177 16.29306152  8.14653076
 -20.36632689 17.65081664  9.50428588
 -21.72408202 19.00857177  8.14653076
 -23.08183715 20.36632689  9.50428588
 -24.43959227 21.72408202  8.14653076
 -25.79734740 23.08183715  9.50428588
  -5.43102051  5.43102051 10.86204101
  -6.78877563  6.78877563 12.21979614
  -8.14653076  8.14653076 10.86204101
  -9.50428588  9.50428588 12.21979614
 -10.86204101 10.86204101 10.86204101
 -12.21979614 12.21979614 12.21979614
 -13.57755126 13.57755126 10.86204101
 -14.93530639 14.93530639 12.21979614
[...]
    -20.36633     20.36633     12.21980        -0.000000     -0.010753      0.000000
    -21.72408     21.72408     10.86204         0.000000      0.010753     -0.000000
    -23.08184     23.08184     12.21980        -0.000000     -0.010753      0.000000
    -24.43959     24.43959     10.86204         0.000000      0.010753     -0.000000
    -25.79735     25.79735     12.21980        -0.000000     -0.010753      0.000000
     -5.43102      8.14653     13.57755         0.000000      0.010753     -0.000000
     -6.78878      9.50429     14.93531        -0.000000     -0.010753      0.000000
     -8.14653     10.86204     13.57755         0.000000      0.010753     -0.000000
     -9.50429     12.21980     14.93531        -0.000000     -0.010753      0.000000
    -10.86204     13.57755     13.57755         0.000000      0.010753     -0.000000
    -12.21980     14.93531     14.93531        -0.000000     -0.010753      0.000000
    -13.57755     16.29306     13.57755         0.000000      0.010753     -0.000000
    -14.93531     17.65082     14.93531        -0.000000     -0.010753      0.000000
    -16.29306     19.00857     13.57755         0.000000      0.010753     -0.000000
    -17.65082     20.36633     14.93531        -0.000000     -0.010753      0.000000
    -19.00857     21.72408     13.57755         0.000000      0.010753     -0.000000
    -20.36633     23.08184     14.93531        -0.000000     -0.010753      0.000000
    -21.72408     24.43959     13.57755         0.000000      0.010753     -0.000000
    -23.08184     25.79735     14.93531        -0.000000     -0.010753      0.000000
    -24.43959     27.15510     13.57755         0.000000      0.010753     -0.000000
    -25.79735     28.51286     14.93531        -0.000000     -0.010753      0.000000
     -5.43102     10.86204     16.29306         0.000000      0.010753     -0.000000
     -6.78878     12.21980     17.65082        -0.000000     -0.010753      0.000000
     -8.14653     13.57755     16.29306         0.000000      0.010753     -0.000000
     -9.50429     14.93531     17.65082        -0.000000     -0.010753      0.000000
    -10.86204     16.29306     16.29306         0.000000      0.010753     -0.000000
    -12.21980     17.65082     17.65082        -0.000000     -0.010753      0.000000
    -13.57755     19.00857     16.29306         0.000000      0.010753     -0.000000
    -14.93531     20.36633     17.65082        -0.000000     -0.010753      0.000000
    -16.29306     21.72408     16.29306         0.000000      0.010753     -0.000000
    -17.65082     23.08184     17.65082        -0.000000     -0.010753      0.000000
    -19.00857     24.43959     16.29306         0.000000      0.010753     -0.000000
    -20.36633     25.79735     17.65082        -0.000000     -0.010753      0.000000
    -21.72408     27.15510     16.29306         0.000000      0.010753     -0.000000
    -23.08184     28.51286     17.65082        -0.000000     -0.010753      0.000000
    -24.43959     29.87061     16.29306         0.000000      0.010753     -0.000000
    -25.79735     31.22837     17.65082        -0.000000     -0.010753      0.000000
     -5.43102     13.57755     19.00857         0.000000      0.010753     -0.000000
     -6.78878     14.93531     20.36633        -0.000000     -0.010753      0.000000
     -8.14653     16.29306     19.00857         0.000000      0.010753     -0.000000
     -9.50429     17.65082     20.36633        -0.000000     -0.010753      0.000000
    -10.86204     19.00857     19.00857         0.000000      0.010753     -0.000000
    -12.21980     20.36633     20.36633        -0.000000     -0.010753      0.000000
    -13.57755     21.72408     19.00857         0.000000      0.010753     -0.000000
    -14.93531     23.08184     20.36633        -0.000000     -0.010753      0.000000
    -16.29306     24.43959     19.00857         0.000000      0.010753     -0.000000
    -17.65082     25.79735     20.36633        -0.000000     -0.010753      0.000000
    -19.00857     27.15510     19.00857         0.000000      0.010753     -0.000000
    -20.36633     28.51286     20.36633        -0.000000     -0.010753      0.000000
    -21.72408     29.87061     19.00857         0.000000      0.010753     -0.000000
    -23.08184     31.22837     20.36633        -0.000000     -0.010753      0.000000
    -24.43959     32.58612     19.00857         0.000000      0.010753     -0.000000
    -25.79735     33.94388     20.36633        -0.000000     -0.010753      0.000000
     -5.43102     16.29306     21.72408         0.000000      0.010753     -0.000000
     -6.78878     17.65082     23.08184        -0.000000     -0.010753      0.000000
     -8.14653     19.00857     21.72408         0.000000      0.010753     -0.000000
     -9.50429     20.36633     23.08184        -0.000000     -0.010753      0.000000
    -10.86204     21.72408     21.72408         0.000000      0.010753     -0.000000
    -12.21980     23.08184     23.08184        -0.000000     -0.010753      0.000000
    -13.57755     24.43959     21.72408         0.000000      0.010753     -0.000000
    -14.93531     25.79735     23.08184        -0.000000     -0.010753      0.000000
    -16.29306     27.15510     21.72408         0.000000      0.010753     -0.000000
    -17.65082     28.51286     23.08184        -0.000000     -0.010753      0.000000
    -19.00857     29.87061     21.72408         0.000000      0.010753     -0.000000
    -20.36633     31.22837     23.08184        -0.000000     -0.010753      0.000000
    -21.72408     32.58612     21.72408         0.000000      0.010753     -0.000000
    -23.08184     33.94388     23.08184        -0.000000     -0.010753      0.000000
    -24.43959     35.30163     21.72408         0.000000      0.010753     -0.000000
    -25.79735     36.65939     23.08184        -0.000000     -0.010753      0.000000
     -5.43102     19.00857     24.43959         0.000000      0.010753     -0.000000
     -6.78878     20.36633     25.79735        -0.000000     -0.010753      0.000000
     -8.14653     21.72408     24.43959         0.000000      0.010753     -0.000000
     -9.50429     23.08184     25.79735        -0.000000     -0.010753      0.000000
    -10.86204     24.43959     24.43959         0.000000      0.010753     -0.000000
    -12.21980     25.79735     25.79735        -0.000000     -0.010753      0.000000
    -13.57755     27.15510     24.43959         0.000000      0.010753     -0.000000
    -14.93531     28.51286     25.79735        -0.000000     -0.010753      0.000000
    -16.29306     29.87061     24.43959         0.000000      0.010753     -0.000000
    -17.65082     31.22837     25.79735        -0.000000     -0.010753      0.000000
    -19.00857     32.58612     24.43959         0.000000      0.010753     -0.000000
    -20.36633     33.94388     25.79735        -0.000000     -0.010753      0.000000
    -21.72408     35.30163     24.43959         0.000000      0.010753     -0.000000
    -23.08184     36.65939     25.79735        -0.000000     -0.010753      0.000000
    -24.43959     38.01714     24.43959         0.000000      0.010753     -0.000000
    -25.79735     39.37490     25.79735        -0.000000     -0.010753      0.000000
     -8.14653      0.00000      8.14653         0.000000      0.010753     -0.000000
     -9.50429      1.35776      9.50429        -0.000000     -0.010753      0.000000
    -10.86204      2.71551      8.14653         0.000000      0.010753     -0.000000
    -12.21980      4.07327      9.50429        -0.000000     -0.010753      0.000000
    -13.57755      5.43102      8.14653         0.000000      0.010753     -0.000000
    -14.93531      6.78878      9.50429        -0.000000     -0.010753      0.000000
    -16.29306      8.14653      8.14653         0.000000      0.010753     -0.000000
    -17.65082      9.50429      9.50429        -0.000000     -0.010753      0.000000
    -19.00857     10.86204      8.14653         0.000000      0.010753     -0.000000
    -20.36633     12.21980      9.50429        -0.000000     -0.010753      0.000000
    -21.72408     13.57755      8.14653         0.000000      0.010753     -0.000000
    -23.08184     14.93531      9.50429        -0.000000     -0.010753      0.000000
    -24.43959     16.29306      8.14653         0.000000      0.010753     -0.000000
    -25.79735     17.65082      9.50429        -0.000000     -0.010753      0.000000
    -27.15510     19.00857      8.14653         0.000000      0.010753     -0.000000
    -28.51286     20.36633      9.50429        -0.000000     -0.010753      0.000000
     -8.14653      2.71551     10.86204         0.000000      0.010753     -0.000000
     -9.50429      4.07327     12.21980        -0.000000     -0.010753      0.000000
    -10.86204      5.43102     10.86204         0.000000      0.010753     -0.000000
    -12.21980      6.78878     12.21980        -0.000000     -0.010753      0.000000
    -13.57755      8.14653     10.86204         0.000000      0.010753     -0.000000
    -14.93531      9.50429     12.21980        -0.000000     -0.010753      0.000000
    -16.29306     10.86204     10.86204         0.000000      0.010753     -0.000000
    -17.65082     12.21980     12.21980        -0.000000     -0.010753      0.000000
    -19.00857     13.57755     10.86204         0.000000      0.010753     -0.000000
    -20.36633     14.93531     12.21980        -0.000000     -0.010753      0.000000
    -21.72408     16.29306     10.86204         0.000000      0.010753     -0.000000
    -23.08184     17.65082     12.21980        -0.000000     -0.010753      0.000000
    -24.43959     19.00857     10.86204         0.000000      0.010753     -0.000000
    -25.79735     20.36633     12.21980        -0.000000     -0.010753      0.000000
    -27.15510     21.72408     10.86204         0.000000      0.010753     -0.000000
    -28.51286     23.08184     12.21980        -0.000000     -0.010753      0.000000
     -8.14653      5.43102     13.57755         0.000000      0.010753     -0.000000
     -9.50429      6.78878     14.93531        -0.000000     -0.010753      0.000000
    -10.86204      8.14653     13.57755         0.000000      0.010753     -0.000000
    -12.21980      9.50429     14.93531        -0.000000     -0.010753      0.000000
    -13.57755     10.86204     13.57755         0.000000      0.010753     -0.000000
    -14.93531     12.21980     14.93531        -0.000000     -0.010753      0.000000
    -16.29306     13.57755     13.57755         0.000000      0.010753     -0.000000
    -17.65082     14.93531     14.93531        -0.000000     -0.010753      0.000000
    -19.00857     16.29306     13.57755         0.000000      0.010753     -0.000000
    -20.36633     17.65082     14.93531        -0.000000     -0.010753      0.000000
    -21.72408     19.00857     13.57755         0.000000      0.010753     -0.000000
    -23.08184     20.36633     14.93531        -0.000000     -0.010753      0.000000
    -24.43959     21.72408     13.57755         0.000000      0.010753     -0.000000
    -25.79735     23.08184     14.93531        -0.000000     -0.010753      0.000000
    -27.15510     24.43959     13.57755         0.000000      0.010753     -0.000000
    -28.51286     25.79735     14.93531        -0.000000     -0.010753      0.000000
     -8.14653      8.14653     16.29306         0.000000      0.010753     -0.000000
     -9.50429      9.50429     17.65082        -0.000000     -0.010753      0.000000
    -10.86204     10.86204     16.29306         0.000000      0.010753     -0.000000
    -12.21980     12.21980     17.65082        -0.000000     -0.010753      0.000000
    -13.57755     13.57755     16.29306         0.000000      0.010753     -0.000000
    -14.93531     14.93531     17.65082        -0.000000     -0.010753      0.000000
    -16.29306     16.29306     16.29306         0.000000      0.010753     -0.000000
    -17.65082     17.65082     17.65082        -0.000000     -0.010753      0.000000
    -19.00857     19.00857     16.29306         0.000000      0.010753     -0.000000
    -20.36633     20.36633     17.65082        -0.000000     -0.010753      0.000000
    -21.72408     21.72408     16.29306         0.000000      0.010753     -0.000000
    -23.08184     23.08184     17.65082        -0.000000     -0.010753      0.000000
    -24.43959     24.43959     16.29306         0.000000      0.010753     -0.000000
    -25.79735     25.79735     17.65082        -0.000000     -0.010753      0.000000
    -27.15510     27.15510     16.29306         0.000000      0.010753     -0.000000
    -28.51286     28.51286     17.65082        -0.000000     -0.010753      0.000000
     -8.14653     10.86204     19.00857         0.000000      0.010753     -0.000000
     -9.50429     12.21980     20.36633        -0.000000     -0.010753      0.000000
    -10.86204     13.57755     19.00857         0.000000      0.010753     -0.000000
    -12.21980     14.93531     20.36633        -0.000000     -0.010753      0.000000
    -13.57755     16.29306     19.00857         0.000000      0.010753     -0.000000
    -14.93531     17.65082     20.36633        -0.000000     -0.010753      0.000000
    -16.29306     19.00857     19.00857         0.000000      0.010753     -0.000000
    -17.65082     20.36633     20.36633        -0.000000     -0.010753      0.000000
    -19.00857     21.72408     19.00857         0.000000      0.010753     -0.000000
    -20.36633     23.08184     20.36633        -0.000000     -0.010753      0.000000
    -21.72408     24.43959     19.00857         0.000000      0.010753     -0.000000
    -23.08184     25.79735     20.36633        -0.000000     -0.010753      0.000000
    -24.43959     27.15510     19.00857         0.000000      0.010753     -0.000000
    -25.79735     28.51286     20.36633        -0.000000     -0.010753      0.000000
    -27.15510     29.87061     19.00857         0.000000      0.010753     -0.000000
    -28.51286     31.22837     20.36633        -0.000000     -0.010753      0.000000
     -8.14653     13.57755     21.72408         0.000000      0.010753     -0.000000
     -9.50429     14.93531     23.08184        -0.000000     -0.010753      0.000000
    -10.86204     16.29306     21.72408         0.000000      0.010753     -0.000000
    -12.21980     17.65082     23.08184        -0.000000     -0.010753      0.000000
    -13.57755     19.00857     21.72408         0.000000      0.010753     -0.000000
    -14.93531     20.36633     23.08184        -0.000000     -0.010753      0.000000
    -16.29306     21.72408     21.72408         0.000000      0.010753     -0.000000
    -17.65082     23.08184     23.08184        -0.000000     -0.010753      0.000000
    -19.00857     24.43959     21.72408         0.000000      0.010753     -0.000000
    -20.36633     25.79735     23.08184        -0.000000     -0.010753      0.000000
    -21.72408     27.15510     21.72408         0.000000      0.010753     -0.000000
    -23.08184     28.51286     23.08184        -0.000000     -0.010753      0.000000
    -24.43959     29.87061     21.72408         0.000000      0.010753     -0.000000
    -25.79735     31.22837     23.08184        -0.000000     -0.010753      0.000000
    -27.15510     32.58612     21.72408         0.000000      0.010753     -0.000000
    -28.51286     33.94388     23.08184        -0.000000     -0.010753      0.000000
     -8.14653     16.29306     24.43959         0.000000      0.010753     -0.000000
     -9.50429     17.65082     25.79735        -0.000000     -0.010753      0.000000
    -10.86204     19.00857     24.43959         0.000000      0.010753     -0.000000
    -12.21980     20.36633     25.79735        -0.000000     -0.010753      0.000000
    -13.57755     21.72408     24.43959         0.000000      0.010753     -0.000000
    -14.93531     23.08184     25.79735        -0.000000     -0.010753      0.000000
    -16.29306     24.43959     24.43959         0.000000      0.010753     -0.000000
    -17.65082     25.79735     25.79735        -0.000000     -0.010753      0.000000
    -19.00857     27.15510     24.43959         0.000000      0.010753     -0.000000
    -20.36633     28.51286     25.79735        -0.000000     -0.010753      0.000000
    -21.72408     29.87061     24.43959         0.000000      0.010753     -0.000000
    -23.08184     31.22837     25.79735        -0.000000     -0.010753      0.000000
    -24.43959     32.58612     24.43959         0.000000      0.010753     -0.000000
    -25.79735     33.94388     25.79735        -0.000000     -0.010753      0.000000
    -27.15510     35.30163     24.43959         0.000000      0.010753     -0.000000
    -28.51286     36.65939     25.79735        -0.000000     -0.010753      0.000000
     -8.14653     19.00857     27.15510         0.000000      0.010753     -0.000000
     -9.50429     20.36633     28.51286        -0.000000     -0.010753      0.000000
    -10.86204     21.72408     27.15510         0.000000      0.010753     -0.000000
    -12.21980     23.08184     28.51286        -0.000000     -0.010753      0.000000
    -13.57755     24.43959     27.15510         0.000000      0.010753     -0.000000
    -14.93531     25.79735     28.51286        -0.000000     -0.010753      0.000000
    -16.29306     27.15510     27.15510         0.000000      0.010753     -0.000000
    -17.65082     28.51286     28.51286        -0.000000     -0.010753      0.000000
    -19.00857     29.87061     27.15510         0.000000      0.010753     -0.000000
    -20.36633     31.22837     28.51286        -0.000000     -0.010753      0.000000
    -21.72408     32.58612     27.15510         0.000000      0.010753     -0.000000
    -23.08184     33.94388     28.51286        -0.000000     -0.010753      0.000000
    -24.43959     35.30163     27.15510         0.000000      0.010753     -0.000000
    -25.79735     36.65939     28.51286        -0.000000     -0.010753      0.000000
    -27.15510     38.01714     27.15510         0.000000      0.010753     -0.000000
    -28.51286     39.37490     28.51286        -0.000000     -0.010753      0.000000
 -----------------------------------------------------------------------------------
    total drift:                               -0.001149      0.004619      0.001230


--------------------------------------------------------------------------------------------------------



  FREE ENERGIE OF THE ION-ELECTRON SYSTEM (eV)
  ---------------------------------------------------
  free  energy   TOTEN  =     -2765.38903381 eV

  energy  without entropy=    -2765.45838400  energy(sigma->0) =    -2765.41215054
 


--------------------------------------------------------------------------------------------------------


    POTLOK:  cpu time    1.1318: real time    1.1305


--------------------------------------------------------------------------------------------------------


     LOOP+:  cpu time  382.3659: real time  382.4030
    4ORBIT:  cpu time    0.0000: real time    0.0000

 total amount of memory used by VASP MPI-rank0   750389. kBytes
=======================================================================

   base      :      30000. kBytes
   nonlr-proj:      58479. kBytes
   fftplans  :      61899. kBytes
   grid      :     118080. kBytes
   one-center:       1572. kBytes
   wavefun   :     480359. kBytes
 
  
  
 General timing and accounting informations for this job:
 ========================================================
  
                  Total CPU time used (sec):      396.489
                            User time (sec):      295.905
                          System time (sec):      100.584
                         Elapsed time (sec):      397.546
  
                   Maximum memory used (kb):     1218676.
                   Average memory used (kb):           0.
  
                          Minor page faults:       119365
                          Major page faults:            0
                 Voluntary context switches:         8195
