Si-big                                  
           1
   -10.862041    0.000000   10.862041
     0.000000   21.724082   21.724082
   -21.724082   21.724082    0.000000
   Si
 512
Direct configuration=     1
   0.00000000  0.00000000  0.00000000
   0.06250000  0.03125000  0.03125000
   0.00000000  0.00000000  0.12500000
   0.06250000  0.03125000  0.15625000
   0.00000000  0.00000000  0.25000000
   0.06250000  0.03125000  0.28125000
   0.00000000  0.00000000  0.37500000
   0.06250000  0.03125000  0.40625000
   0.00000000  0.00000000  0.50000000
   0.06250000  0.03125000  0.53125000
   0.00000000  0.00000000  0.62500000
   0.06250000  0.03125000  0.65625000
   0.00000000  0.00000000  0.75000000
   0.06250000  0.03125000  0.78125000
   0.00000000  0.00000000  0.87500000
   0.06250000  0.03125000  0.90625000
   0.00000000  0.12500000  0.00000000
   0.06250000  0.15625000  0.03125000
   0.00000000  0.12500000  0.12500000
   0.06250000  0.15625000  0.15625000
   0.00000000  0.12500000  0.25000000
   0.06250000  0.15625000  0.28125000
   0.00000000  0.12500000  0.37500000
   0.06250000  0.15625000  0.40625000
   0.00000000  0.12500000  0.50000000
   0.06250000  0.15625000  0.53125000
   0.00000000  0.12500000  0.62500000
   0.06250000  0.15625000  0.65625000
   0.00000000  0.12500000  0.75000000
   0.06250000  0.15625000  0.78125000
   0.00000000  0.12500000  0.87500000
   0.06250000  0.15625000  0.90625000
   0.00000000  0.25000000  0.00000000
   0.06250000  0.28125000  0.03125000
   0.00000000  0.25000000  0.12500000
   0.06250000  0.28125000  0.15625000
   0.00000000  0.25000000  0.25000000
   0.06250000  0.28125000  0.28125000
   0.00000000  0.25000000  0.37500000
   0.06250000  0.28125000  0.40625000
   0.00000000  0.25000000  0.50000000
   0.06250000  0.28125000  0.53125000
   0.00000000  0.25000000  0.62500000
   0.06250000  0.28125000  0.65625000
   0.00000000  0.25000000  0.75000000
   0.06250000  0.28125000  0.78125000
   0.00000000  0.25000000  0.87500000
   0.06250000  0.28125000  0.90625000
   0.00000000  0.37500000  0.00000000
   0.06250000  0.40625000  0.03125000
   0.00000000  0.37500000  0.12500000
   0.06250000  0.40625000  0.15625000
   0.00000000  0.37500000  0.25000000
   0.06250000  0.40625000  0.28125000
   0.00000000  0.37500000  0.37500000
   0.06250000  0.40625000  0.40625000
   0.00000000  0.37500000  0.50000000
   0.06250000  0.40625000  0.53125000
   0.00000000  0.37500000  0.62500000
   0.06250000  0.40625000  0.65625000
   0.00000000  0.37500000  0.75000000
   0.06250000  0.40625000  0.78125000
   0.00000000  0.37500000  0.87500000
   0.06250000  0.40625000  0.90625000
   0.00000000  0.50000000  0.00000000
   0.06250000  0.53125000  0.03125000
   0.00000000  0.50000000  0.12500000
   0.06250000  0.53125000  0.15625000
   0.00000000  0.50000000  0.25000000
   0.06250000  0.53125000  0.28125000
   0.00000000  0.50000000  0.37500000
   0.06250000  0.53125000  0.40625000
   0.00000000  0.50000000  0.50000000
   0.06250000  0.53125000  0.53125000
   0.00000000  0.50000000  0.62500000
   0.06250000  0.53125000  0.65625000
   0.00000000  0.50000000  0.75000000
   0.06250000  0.53125000  0.78125000
   0.00000000  0.50000000  0.87500000
   0.06250000  0.53125000  0.90625000
   0.00000000  0.62500000  0.00000000
   0.06250000  0.65625000  0.03125000
   0.00000000  0.62500000  0.12500000
   0.06250000  0.65625000  0.15625000
   0.00000000  0.62500000  0.25000000
   0.06250000  0.65625000  0.28125000
   0.00000000  0.62500000  0.37500000
   0.06250000  0.65625000  0.40625000
   0.00000000  0.62500000  0.50000000
   0.06250000  0.65625000  0.53125000
   0.00000000  0.62500000  0.62500000
   0.06250000  0.65625000  0.65625000
   0.00000000  0.62500000  0.75000000
   0.06250000  0.65625000  0.78125000
   0.00000000  0.62500000  0.87500000
   0.06250000  0.65625000  0.90625000
   0.00000000  0.75000000  0.00000000
   0.06250000  0.78125000  0.03125000
   0.00000000  0.75000000  0.12500000
   0.06250000  0.78125000  0.15625000
   0.00000000  0.75000000  0.25000000
   0.06250000  0.78125000  0.28125000
   0.00000000  0.75000000  0.37500000
   0.06250000  0.78125000  0.40625000
   0.00000000  0.75000000  0.50000000
   0.06250000  0.78125000  0.53125000
   0.00000000  0.75000000  0.62500000
   0.06250000  0.78125000  0.65625000
   0.00000000  0.75000000  0.75000000
   0.06250000  0.78125000  0.78125000
   0.00000000  0.75000000  0.87500000
   0.06250000  0.78125000  0.90625000
   0.00000000  0.87500000  0.00000000
   0.06250000  0.90625000  0.03125000
   0.00000000  0.87500000  0.12500000
   0.06250000  0.90625000  0.15625000
   0.00000000  0.87500000  0.25000000
   0.06250000  0.90625000  0.28125000
   0.00000000  0.87500000  0.37500000
   0.06250000  0.90625000  0.40625000
   0.00000000  0.87500000  0.50000000
   0.06250000  0.90625000  0.53125000
   0.00000000  0.87500000  0.62500000
   0.06250000  0.90625000  0.65625000
   0.00000000  0.87500000  0.75000000
   0.06250000  0.90625000  0.78125000
   0.00000000  0.87500000  0.87500000
   0.06250000  0.90625000  0.90625000
   0.25000000  0.00000000  0.00000000
   0.31250000  0.03125000  0.03125000
   0.25000000  0.00000000  0.12500000
   0.31250000  0.03125000  0.15625000
   0.25000000  0.00000000  0.25000000
   0.31250000  0.03125000  0.28125000
   0.25000000  0.00000000  0.37500000
   0.31250000  0.03125000  0.40625000
   0.25000000  0.00000000  0.50000000
   0.31250000  0.03125000  0.53125000
   0.25000000  0.00000000  0.62500000
   0.31250000  0.03125000  0.65625000
   0.25000000  0.00000000  0.75000000
   0.31250000  0.03125000  0.78125000
   0.25000000  0.00000000  0.87500000
   0.31250000  0.03125000  0.90625000
   0.25000000  0.12500000  0.00000000
   0.31250000  0.15625000  0.03125000
   0.25000000  0.12500000  0.12500000
   0.31250000  0.15625000  0.15625000
   0.25000000  0.12500000  0.25000000
   0.31250000  0.15625000  0.28125000
   0.25000000  0.12500000  0.37500000
   0.31250000  0.15625000  0.40625000
   0.25000000  0.12500000  0.50000000
   0.31250000  0.15625000  0.53125000
   0.25000000  0.12500000  0.62500000
   0.31250000  0.15625000  0.65625000
   0.25000000  0.12500000  0.75000000
   0.31250000  0.15625000  0.78125000
   0.25000000  0.12500000  0.87500000
   0.31250000  0.15625000  0.90625000
   0.25000000  0.25000000  0.00000000
   0.31250000  0.28125000  0.03125000
   0.25000000  0.25000000  0.12500000
   0.31250000  0.28125000  0.15625000
   0.25000000  0.25000000  0.25000000
   0.31250000  0.28125000  0.28125000
   0.25000000  0.25000000  0.37500000
   0.31250000  0.28125000  0.40625000
   0.25000000  0.25000000  0.50000000
   0.31250000  0.28125000  0.53125000
   0.25000000  0.25000000  0.62500000
   0.31250000  0.28125000  0.65625000
   0.25000000  0.25000000  0.75000000
   0.31250000  0.28125000  0.78125000
   0.25000000  0.25000000  0.87500000
   0.31250000  0.28125000  0.90625000
   0.25000000  0.37500000  0.00000000
   0.31250000  0.40625000  0.03125000
   0.25000000  0.37500000  0.12500000
   0.31250000  0.40625000  0.15625000
   0.25000000  0.37500000  0.25000000
   0.31250000  0.40625000  0.28125000
   0.25000000  0.37500000  0.37500000
   0.31250000  0.40625000  0.40625000
   0.25000000  0.37500000  0.50000000
   0.31250000  0.40625000  0.53125000
   0.25000000  0.37500000  0.62500000
   0.31250000  0.40625000  0.65625000
   0.25000000  0.37500000  0.75000000
   0.31250000  0.40625000  0.78125000
   0.25000000  0.37500000  0.87500000
   0.31250000  0.40625000  0.90625000
   0.25000000  0.50000000  0.00000000
   0.31250000  0.53125000  0.03125000
   0.25000000  0.50000000  0.12500000
   0.31250000  0.53125000  0.15625000
   0.25000000  0.50000000  0.25000000
   0.31250000  0.53125000  0.28125000
   0.25000000  0.50000000  0.37500000
   0.31250000  0.53125000  0.40625000
   0.25000000  0.50000000  0.50000000
   0.31250000  0.53125000  0.53125000
   0.25000000  0.50000000  0.62500000
   0.31250000  0.53125000  0.65625000
   0.25000000  0.50000000  0.75000000
   0.31250000  0.53125000  0.78125000
   0.25000000  0.50000000  0.87500000
   0.31250000  0.53125000  0.90625000
   0.25000000  0.62500000  0.00000000
   0.31250000  0.65625000  0.03125000
   0.25000000  0.62500000  0.12500000
   0.31250000  0.65625000  0.15625000
   0.25000000  0.62500000  0.25000000
   0.31250000  0.65625000  0.28125000
   0.25000000  0.62500000  0.37500000
   0.31250000  0.65625000  0.40625000
   0.25000000  0.62500000  0.50000000
   0.31250000  0.65625000  0.53125000
   0.25000000  0.62500000  0.62500000
   0.31250000  0.65625000  0.65625000
   0.25000000  0.62500000  0.75000000
   0.31250000  0.65625000  0.78125000
   0.25000000  0.62500000  0.87500000
   0.31250000  0.65625000  0.90625000
   0.25000000  0.75000000  0.00000000
   0.31250000  0.78125000  0.03125000
   0.25000000  0.75000000  0.12500000
   0.31250000  0.78125000  0.15625000
   0.25000000  0.75000000  0.25000000
   0.31250000  0.78125000  0.28125000
   0.25000000  0.75000000  0.37500000
   0.31250000  0.78125000  0.40625000
   0.25000000  0.75000000  0.50000000
   0.31250000  0.78125000  0.53125000
   0.25000000  0.75000000  0.62500000
   0.31250000  0.78125000  0.65625000
   0.25000000  0.75000000  0.75000000
   0.31250000  0.78125000  0.78125000
   0.25000000  0.75000000  0.87500000
   0.31250000  0.78125000  0.90625000
   0.25000000  0.87500000  0.00000000
   0.31250000  0.90625000  0.03125000
   0.25000000  0.87500000  0.12500000
   0.31250000  0.90625000  0.15625000
   0.25000000  0.87500000  0.25000000
   0.31250000  0.90625000  0.28125000
   0.25000000  0.87500000  0.37500000
   0.31250000  0.90625000  0.40625000
   0.25000000  0.87500000  0.50000000
   0.31250000  0.90625000  0.53125000
   0.25000000  0.87500000  0.62500000
   0.31250000  0.90625000  0.65625000
   0.25000000  0.87500000  0.75000000
   0.31250000  0.90625000  0.78125000
   0.25000000  0.87500000  0.87500000
   0.31250000  0.90625000  0.90625000
   0.50000000  0.00000000  0.00000000
   0.56250000  0.03125000  0.03125000
   0.50000000  0.00000000  0.12500000
   0.56250000  0.03125000  0.15625000
   0.50000000  0.00000000  0.25000000
   0.56250000  0.03125000  0.28125000
   0.50000000  0.00000000  0.37500000
   0.56250000  0.03125000  0.40625000
   0.50000000  0.00000000  0.50000000
   0.56250000  0.03125000  0.53125000
   0.50000000  0.00000000  0.62500000
   0.56250000  0.03125000  0.65625000
   0.50000000  0.00000000  0.75000000
   0.56250000  0.03125000  0.78125000
   0.50000000  0.00000000  0.87500000
   0.56250000  0.03125000  0.90625000
   0.50000000  0.12500000  0.00000000
   0.56250000  0.15625000  0.03125000
   0.50000000  0.12500000  0.12500000
   0.56250000  0.15625000  0.15625000
   0.50000000  0.12500000  0.25000000
   0.56250000  0.15625000  0.28125000
   0.50000000  0.12500000  0.37500000
   0.56250000  0.15625000  0.40625000
   0.50000000  0.12500000  0.50000000
   0.56250000  0.15625000  0.53125000
   0.50000000  0.12500000  0.62500000
   0.56250000  0.15625000  0.65625000
   0.50000000  0.12500000  0.75000000
   0.56250000  0.15625000  0.78125000
   0.50000000  0.12500000  0.87500000
   0.56250000  0.15625000  0.90625000
   0.50000000  0.25000000  0.00000000
   0.56250000  0.28125000  0.03125000
   0.50000000  0.25000000  0.12500000
   0.56250000  0.28125000  0.15625000
   0.50000000  0.25000000  0.25000000
   0.56250000  0.28125000  0.28125000
   0.50000000  0.25000000  0.37500000
   0.56250000  0.28125000  0.40625000
   0.50000000  0.25000000  0.50000000
   0.56250000  0.28125000  0.53125000
   0.50000000  0.25000000  0.62500000
   0.56250000  0.28125000  0.65625000
   0.50000000  0.25000000  0.75000000
   0.56250000  0.28125000  0.78125000
   0.50000000  0.25000000  0.87500000
   0.56250000  0.28125000  0.90625000
   0.50000000  0.37500000  0.00000000
   0.56250000  0.40625000  0.03125000
   0.50000000  0.37500000  0.12500000
   0.56250000  0.40625000  0.15625000
   0.50000000  0.37500000  0.25000000
   0.56250000  0.40625000  0.28125000
   0.50000000  0.37500000  0.37500000
   0.56250000  0.40625000  0.40625000
   0.50000000  0.37500000  0.50000000
   0.56250000  0.40625000  0.53125000
   0.50000000  0.37500000  0.62500000
   0.56250000  0.40625000  0.65625000
   0.50000000  0.37500000  0.75000000
   0.56250000  0.40625000  0.78125000
   0.50000000  0.37500000  0.87500000
   0.56250000  0.40625000  0.90625000
   0.50000000  0.50000000  0.00000000
   0.56250000  0.53125000  0.03125000
   0.50000000  0.50000000  0.12500000
   0.56250000  0.53125000  0.15625000
   0.50000000  0.50000000  0.25000000
   0.56250000  0.53125000  0.28125000
   0.50000000  0.50000000  0.37500000
   0.56250000  0.53125000  0.40625000
   0.50000000  0.50000000  0.50000000
   0.56250000  0.53125000  0.53125000
   0.50000000  0.50000000  0.62500000
   0.56250000  0.53125000  0.65625000
   0.50000000  0.50000000  0.75000000
   0.56250000  0.53125000  0.78125000
   0.50000000  0.50000000  0.87500000
   0.56250000  0.53125000  0.90625000
   0.50000000  0.62500000  0.00000000
   0.56250000  0.65625000  0.03125000
   0.50000000  0.62500000  0.12500000
   0.56250000  0.65625000  0.15625000
   0.50000000  0.62500000  0.25000000
   0.56250000  0.65625000  0.28125000
   0.50000000  0.62500000  0.37500000
   0.56250000  0.65625000  0.40625000
   0.50000000  0.62500000  0.50000000
   0.56250000  0.65625000  0.53125000
   0.50000000  0.62500000  0.62500000
   0.56250000  0.65625000  0.65625000
   0.50000000  0.62500000  0.75000000
   0.56250000  0.65625000  0.78125000
   0.50000000  0.62500000  0.87500000
   0.56250000  0.65625000  0.90625000
   0.50000000  0.75000000  0.00000000
   0.56250000  0.78125000  0.03125000
   0.50000000  0.75000000  0.12500000
   0.56250000  0.78125000  0.15625000
   0.50000000  0.75000000  0.25000000
   0.56250000  0.78125000  0.28125000
   0.50000000  0.75000000  0.37500000
   0.56250000  0.78125000  0.40625000
   0.50000000  0.75000000  0.50000000
   0.56250000  0.78125000  0.53125000
   0.50000000  0.75000000  0.62500000
   0.56250000  0.78125000  0.65625000
   0.50000000  0.75000000  0.75000000
   0.56250000  0.78125000  0.78125000
   0.50000000  0.75000000  0.87500000
   0.56250000  0.78125000  0.90625000
   0.50000000  0.87500000  0.00000000
   0.56250000  0.90625000  0.03125000
   0.50000000  0.87500000  0.12500000
   0.56250000  0.90625000  0.15625000
   0.50000000  0.87500000  0.25000000
   0.56250000  0.90625000  0.28125000
   0.50000000  0.87500000  0.37500000
   0.56250000  0.90625000  0.40625000
   0.50000000  0.87500000  0.50000000
   0.56250000  0.90625000  0.53125000
   0.50000000  0.87500000  0.62500000
   0.56250000  0.90625000  0.65625000
   0.50000000  0.87500000  0.75000000
   0.56250000  0.90625000  0.78125000
   0.50000000  0.87500000  0.87500000
   0.56250000  0.90625000  0.90625000
   0.75000000  0.00000000  0.00000000
   0.81250000  0.03125000  0.03125000
   0.75000000  0.00000000  0.12500000
   0.81250000  0.03125000  0.15625000
   0.75000000  0.00000000  0.25000000
   0.81250000  0.03125000  0.28125000
   0.75000000  0.00000000  0.37500000
   0.81250000  0.03125000  0.40625000
   0.75000000  0.00000000  0.50000000
   0.81250000  0.03125000  0.53125000
   0.75000000  0.00000000  0.62500000
   0.81250000  0.03125000  0.65625000
   0.75000000  0.00000000  0.75000000
   0.81250000  0.03125000  0.78125000
   0.75000000  0.00000000  0.87500000
   0.81250000  0.03125000  0.90625000
   0.75000000  0.12500000  0.00000000
   0.81250000  0.15625000  0.03125000
   0.75000000  0.12500000  0.12500000
   0.81250000  0.15625000  0.15625000
   0.75000000  0.12500000  0.25000000
   0.81250000  0.15625000  0.28125000
   0.75000000  0.12500000  0.37500000
   0.81250000  0.15625000  0.40625000
   0.75000000  0.12500000  0.50000000
   0.81250000  0.15625000  0.53125000
   0.75000000  0.12500000  0.62500000
   0.81250000  0.15625000  0.65625000
   0.75000000  0.12500000  0.75000000
   0.81250000  0.15625000  0.78125000
   0.75000000  0.12500000  0.87500000
   0.81250000  0.15625000  0.90625000
   0.75000000  0.25000000  0.00000000
   0.81250000  0.28125000  0.03125000
   0.75000000  0.25000000  0.12500000
   0.81250000  0.28125000  0.15625000
   0.75000000  0.25000000  0.25000000
   0.81250000  0.28125000  0.28125000
   0.75000000  0.25000000  0.37500000
   0.81250000  0.28125000  0.40625000
   0.75000000  0.25000000  0.50000000
   0.81250000  0.28125000  0.53125000
   0.75000000  0.25000000  0.62500000
   0.81250000  0.28125000  0.65625000
   0.75000000  0.25000000  0.75000000
   0.81250000  0.28125000  0.78125000
   0.75000000  0.25000000  0.87500000
   0.81250000  0.28125000  0.90625000
   0.75000000  0.37500000  0.00000000
   0.81250000  0.40625000  0.03125000
   0.75000000  0.37500000  0.12500000
   0.81250000  0.40625000  0.15625000
   0.75000000  0.37500000  0.25000000
   0.81250000  0.40625000  0.28125000
   0.75000000  0.37500000  0.37500000
   0.81250000  0.40625000  0.40625000
   0.75000000  0.37500000  0.50000000
   0.81250000  0.40625000  0.53125000
   0.75000000  0.37500000  0.62500000
   0.81250000  0.40625000  0.65625000
   0.75000000  0.37500000  0.75000000
   0.81250000  0.40625000  0.78125000
   0.75000000  0.37500000  0.87500000
   0.81250000  0.40625000  0.90625000
   0.75000000  0.50000000  0.00000000
   0.81250000  0.53125000  0.03125000
   0.75000000  0.50000000  0.12500000
   0.81250000  0.53125000  0.15625000
   0.75000000  0.50000000  0.25000000
   0.81250000  0.53125000  0.28125000
   0.75000000  0.50000000  0.37500000
   0.81250000  0.53125000  0.40625000
   0.75000000  0.50000000  0.50000000
   0.81250000  0.53125000  0.53125000
   0.75000000  0.50000000  0.62500000
   0.81250000  0.53125000  0.65625000
   0.75000000  0.50000000  0.75000000
   0.81250000  0.53125000  0.78125000
   0.75000000  0.50000000  0.87500000
   0.81250000  0.53125000  0.90625000
   0.75000000  0.62500000  0.00000000
   0.81250000  0.65625000  0.03125000
   0.75000000  0.62500000  0.12500000
   0.81250000  0.65625000  0.15625000
   0.75000000  0.62500000  0.25000000
   0.81250000  0.65625000  0.28125000
   0.75000000  0.62500000  0.37500000
   0.81250000  0.65625000  0.40625000
   0.75000000  0.62500000  0.50000000
   0.81250000  0.65625000  0.53125000
   0.75000000  0.62500000  0.62500000
   0.81250000  0.65625000  0.65625000
   0.75000000  0.62500000  0.75000000
   0.81250000  0.65625000  0.78125000
   0.75000000  0.62500000  0.87500000
   0.81250000  0.65625000  0.90625000
   0.75000000  0.75000000  0.00000000
   0.81250000  0.78125000  0.03125000
   0.75000000  0.75000000  0.12500000
   0.81250000  0.78125000  0.15625000
   0.75000000  0.75000000  0.25000000
   0.81250000  0.78125000  0.28125000
   0.75000000  0.75000000  0.37500000
   0.81250000  0.78125000  0.40625000
   0.75000000  0.75000000  0.50000000
   0.81250000  0.78125000  0.53125000
   0.75000000  0.75000000  0.62500000
   0.81250000  0.78125000  0.65625000
   0.75000000  0.75000000  0.75000000
   0.81250000  0.78125000  0.78125000
   0.75000000  0.75000000  0.87500000
   0.81250000  0.78125000  0.90625000
   0.75000000  0.87500000  0.00000000
   0.81250000  0.90625000  0.03125000
   0.75000000  0.87500000  0.12500000
   0.81250000  0.90625000  0.15625000
   0.75000000  0.87500000  0.25000000
   0.81250000  0.90625000  0.28125000
   0.75000000  0.87500000  0.37500000
   0.81250000  0.90625000  0.40625000
   0.75000000  0.87500000  0.50000000
   0.81250000  0.90625000  0.53125000
   0.75000000  0.87500000  0.62500000
   0.81250000  0.90625000  0.65625000
   0.75000000  0.87500000  0.75000000
   0.81250000  0.90625000  0.78125000
   0.75000000  0.87500000  0.87500000
   0.81250000  0.90625000  0.90625000
