 512 512   0   0
  0.2002416E+02  0.1536125E-08  0.3072249E-08  0.3072249E-08  0.5000000E-15
  1.000000000000000E-004
  CAR 
 Si-big                                  
     10.73259295     -8.14001398  301      5.96914131      1.00000000
     -8.140  0.0000E+00  0.0000E+00
     -8.077  0.0000E+00  0.0000E+00
     -8.014  0.0000E+00  0.0000E+00
     -7.951  0.0000E+00  0.0000E+00
     -7.888  0.0000E+00  0.0000E+00
     -7.825  0.0000E+00  0.0000E+00
     -7.763 -0.1897E-26 -0.1194E-27
     -7.700 -0.2700E-24 -0.1711E-25
     -7.637 -0.3165E-22 -0.2008E-23
     -7.574 -0.3038E-20 -0.1931E-21
     -7.511 -0.2387E-18 -0.1521E-19
     -7.448 -0.1534E-16 -0.9804E-18
     -7.385 -0.8069E-15 -0.5174E-16
     -7.322 -0.3293E-13 -0.2124E-14
     -7.259 -0.1183E-11 -0.7652E-13
     -7.196 -0.3378E-10 -0.2202E-11
     -7.133 -0.7880E-09 -0.5178E-10
     -7.071 -0.1498E-07 -0.9941E-09
     -7.008 -0.2317E-06 -0.1557E-07
     -6.945 -0.2911E-05 -0.1987E-06
     -6.882 -0.2964E-04 -0.2063E-05
     -6.819 -0.2439E-03 -0.1741E-04
     -6.756 -0.1615E-02 -0.1190E-03
     -6.693 -0.8556E-02 -0.6573E-03
     -6.630 -0.3596E-01 -0.2919E-02
     -6.567 -0.1183E+00 -0.1036E-01
     -6.504 -0.2978E+00 -0.2910E-01
     -6.441 -0.5483E+00 -0.6359E-01
     -6.379 -0.6500E+00 -0.1045E+00
     -6.316 -0.1843E+00 -0.1161E+00
     -6.253  0.1257E+01 -0.3698E-01
     -6.190  0.4088E+01  0.2202E+00
     -6.127  0.9352E+01  0.8085E+00
     -6.064  0.1867E+02  0.1983E+01
     -6.001  0.3168E+02  0.3976E+01
     -5.938  0.4317E+02  0.6692E+01
     -5.875  0.4576E+02  0.9571E+01
     -5.812  0.3746E+02  0.1193E+02
     -5.749  0.2514E+02  0.1351E+02
     -5.687  0.1877E+02  0.1469E+02
     -5.624  0.2475E+02  0.1625E+02
     -5.561  0.4638E+02  0.1916E+02
     -5.498  0.8448E+02  0.2448E+02
     -5.435  0.1297E+03  0.3264E+02
     -5.372  0.1584E+03  0.4260E+02
     -5.309  0.1492E+03  0.5198E+02
     -5.246  0.1068E+03  0.5870E+02
     -5.183  0.6108E+02  0.6255E+02
     -5.120  0.4069E+02  0.6511E+02
     -5.057  0.5351E+02  0.6847E+02
     -4.995  0.8963E+02  0.7411E+02
     -4.932  0.1313E+03  0.8237E+02
     -4.869  0.1578E+03  0.9229E+02
     -4.806  0.1540E+03  0.1020E+03
     -4.743  0.1241E+03  0.1098E+03
     -4.680  0.9083E+02  0.1155E+03
     -4.617  0.7507E+02  0.1202E+03
     -4.554  0.8055E+02  0.1253E+03
     -4.491  0.9812E+02  0.1315E+03
     -4.428  0.1158E+03  0.1388E+03
     -4.365  0.1221E+03  0.1464E+03
     -4.303  0.1108E+03  0.1534E+03
     -4.240  0.9186E+02  0.1592E+03
     -4.177  0.8950E+02  0.1648E+03
     -4.114  0.1234E+03  0.1726E+03
     -4.051  0.1910E+03  0.1846E+03
     -3.988  0.2655E+03  0.2013E+03
     -3.925  0.3115E+03  0.2209E+03
     -3.862  0.3080E+03  0.2403E+03
     -3.799  0.2627E+03  0.2568E+03
     -3.736  0.2031E+03  0.2696E+03
     -3.673  0.1554E+03  0.2793E+03
     -3.611  0.1374E+03  0.2880E+03
     -3.548  0.1567E+03  0.2978E+03
     -3.485  0.2026E+03  0.3106E+03
     -3.422  0.2471E+03  0.3261E+03
     -3.359  0.2649E+03  0.3428E+03
     -3.296  0.2510E+03  0.3586E+03
     -3.233  0.2155E+03  0.3722E+03
     -3.170  0.1701E+03  0.3829E+03
     -3.107  0.1266E+03  0.3908E+03
     -3.044  0.9737E+02  0.3969E+03
     -2.982  0.8972E+02  0.4026E+03
     -2.919  0.1031E+03  0.4091E+03
     -2.856  0.1335E+03  0.4175E+03
     -2.793  0.1752E+03  0.4285E+03
     -2.730  0.2138E+03  0.4419E+03
     -2.667  0.2257E+03  0.4561E+03
     -2.604  0.1947E+03  0.4684E+03
     -2.541  0.1331E+03  0.4768E+03
     -2.478  0.7302E+02  0.4814E+03
     -2.415  0.3596E+02  0.4836E+03
     -2.352  0.1858E+02  0.4848E+03
     -2.290  0.7754E+01  0.4853E+03
     -2.227 -0.5959E+00  0.4852E+03
     -2.164  0.1103E+01  0.4853E+03
     -2.101  0.2305E+02  0.4868E+03
     -2.038  0.6801E+02  0.4910E+03
     -1.975  0.1250E+03  0.4989E+03
     -1.912  0.1706E+03  0.5096E+03
     -1.849  0.1813E+03  0.5210E+03
     -1.786  0.1498E+03  0.5305E+03
     -1.723  0.9247E+02  0.5363E+03
     -1.660  0.3767E+02  0.5387E+03
     -1.598  0.6105E+01  0.5390E+03
     -1.535 -0.3033E+00  0.5390E+03
     -1.472  0.6122E+01  0.5394E+03
     -1.409  0.1251E+02  0.5402E+03
     -1.346  0.1983E+02  0.5414E+03
     -1.283  0.4689E+02  0.5444E+03
     -1.220  0.1140E+03  0.5516E+03
     -1.157  0.2166E+03  0.5652E+03
     -1.094  0.3193E+03  0.5853E+03
     -1.031  0.3816E+03  0.6093E+03
     -0.968  0.3872E+03  0.6336E+03
     -0.906  0.3476E+03  0.6555E+03
     -0.843  0.2875E+03  0.6736E+03
     -0.780  0.2336E+03  0.6883E+03
     -0.717  0.2110E+03  0.7016E+03
     -0.654  0.2291E+03  0.7160E+03
     -0.591  0.2630E+03  0.7325E+03
     -0.528  0.2636E+03  0.7491E+03
     -0.465  0.2033E+03  0.7619E+03
     -0.402  0.1072E+03  0.7686E+03
     -0.339  0.3084E+02  0.7706E+03
     -0.276  0.1443E+02  0.7715E+03
     -0.214  0.6242E+02  0.7754E+03
     -0.151  0.1498E+03  0.7848E+03
     -0.088  0.2337E+03  0.7995E+03
     -0.025  0.2695E+03  0.8165E+03
      0.038  0.2369E+03  0.8314E+03
      0.101  0.1585E+03  0.8413E+03
      0.164  0.8480E+02  0.8467E+03
      0.227  0.5451E+02  0.8501E+03
      0.290  0.6740E+02  0.8543E+03
      0.353  0.9434E+02  0.8603E+03
      0.416  0.1086E+03  0.8671E+03
      0.478  0.1032E+03  0.8736E+03
      0.541  0.8399E+02  0.8789E+03
      0.604  0.5895E+02  0.8826E+03
      0.667  0.3872E+02  0.8850E+03
      0.730  0.3669E+02  0.8873E+03
      0.793  0.5652E+02  0.8909E+03
      0.856  0.8221E+02  0.8961E+03
      0.919  0.9096E+02  0.9018E+03
      0.982  0.7842E+02  0.9067E+03
      1.045  0.6427E+02  0.9108E+03
      1.108  0.6765E+02  0.9150E+03
      1.170  0.8261E+02  0.9202E+03
      1.233  0.8618E+02  0.9256E+03
      1.296  0.6931E+02  0.9300E+03
      1.359  0.5091E+02  0.9332E+03
      1.422  0.5716E+02  0.9368E+03
      1.485  0.9276E+02  0.9426E+03
      1.548  0.1404E+03  0.9515E+03
      1.611  0.1872E+03  0.9632E+03
      1.674  0.2383E+03  0.9782E+03
      1.737  0.2977E+03  0.9970E+03
      1.800  0.3468E+03  0.1019E+04
      1.862  0.3586E+03  0.1041E+04
      1.925  0.3257E+03  0.1062E+04
      1.988  0.2647E+03  0.1078E+04
      2.051  0.2006E+03  0.1091E+04
      2.114  0.1623E+03  0.1101E+04
      2.177  0.1812E+03  0.1113E+04
      2.240  0.2712E+03  0.1130E+04
      2.303  0.4051E+03  0.1155E+04
      2.366  0.5236E+03  0.1188E+04
      2.429  0.5739E+03  0.1224E+04
      2.492  0.5355E+03  0.1258E+04
      2.554  0.4231E+03  0.1285E+04
      2.617  0.2797E+03  0.1302E+04
      2.680  0.1628E+03  0.1312E+04
      2.743  0.1160E+03  0.1320E+04
      2.806  0.1392E+03  0.1328E+04
      2.869  0.1929E+03  0.1341E+04
      2.932  0.2430E+03  0.1356E+04
      2.995  0.2921E+03  0.1374E+04
      3.058  0.3540E+03  0.1397E+04
      3.121  0.4096E+03  0.1422E+04
      3.184  0.4132E+03  0.1448E+04
      3.246  0.3483E+03  0.1470E+04
      3.309  0.2565E+03  0.1486E+04
      3.372  0.2071E+03  0.1499E+04
      3.435  0.2435E+03  0.1515E+04
      3.498  0.3512E+03  0.1537E+04
      3.561  0.4594E+03  0.1566E+04
      3.624  0.4884E+03  0.1596E+04
      3.687  0.4221E+03  0.1623E+04
      3.750  0.3335E+03  0.1644E+04
      3.813  0.3131E+03  0.1664E+04
      3.876  0.3674E+03  0.1687E+04
      3.938  0.4122E+03  0.1713E+04
      4.001  0.3748E+03  0.1736E+04
      4.064  0.2768E+03  0.1754E+04
      4.127  0.1990E+03  0.1766E+04
      4.190  0.1850E+03  0.1778E+04
      4.253  0.2113E+03  0.1791E+04
      4.316  0.2426E+03  0.1806E+04
      4.379  0.2815E+03  0.1824E+04
      4.442  0.3446E+03  0.1846E+04
      4.505  0.4129E+03  0.1872E+04
      4.568  0.4345E+03  0.1899E+04
      4.630  0.3778E+03  0.1923E+04
      4.693  0.2631E+03  0.1939E+04
      4.756  0.1430E+03  0.1948E+04
      4.819  0.6719E+02  0.1953E+04
      4.882  0.6343E+02  0.1957E+04
      4.945  0.1272E+03  0.1965E+04
      5.008  0.2135E+03  0.1978E+04
      5.071  0.2568E+03  0.1994E+04
      5.134  0.2212E+03  0.2008E+04
      5.197  0.1312E+03  0.2016E+04
      5.260  0.4466E+02  0.2019E+04
      5.322  0.3608E+01  0.2019E+04
      5.385  0.1307E+02  0.2020E+04
      5.448  0.5124E+02  0.2023E+04
      5.511  0.8676E+02  0.2029E+04
      5.574  0.9593E+02  0.2035E+04
      5.637  0.7705E+02  0.2040E+04
      5.700  0.4856E+02  0.2043E+04
      5.763  0.2903E+02  0.2045E+04
      5.826  0.2148E+02  0.2046E+04
      5.889  0.1772E+02  0.2047E+04
      5.952  0.1179E+02  0.2048E+04
      6.014  0.4655E+01  0.2048E+04
      6.077 -0.6136E+00  0.2048E+04
      6.140 -0.3241E+01  0.2048E+04
      6.203 -0.3996E+01  0.2048E+04
      6.266 -0.2363E+01  0.2048E+04
      6.329  0.4227E+01  0.2048E+04
      6.392  0.1804E+02  0.2049E+04
      6.455  0.3806E+02  0.2051E+04
      6.518  0.6034E+02  0.2055E+04
      6.581  0.8159E+02  0.2060E+04
      6.644  0.9967E+02  0.2067E+04
      6.706  0.1098E+03  0.2073E+04
      6.769  0.1062E+03  0.2080E+04
      6.832  0.9081E+02  0.2086E+04
      6.895  0.7611E+02  0.2091E+04
      6.958  0.7280E+02  0.2095E+04
      7.021  0.8114E+02  0.2100E+04
      7.084  0.9766E+02  0.2106E+04
      7.147  0.1252E+03  0.2114E+04
      7.210  0.1703E+03  0.2125E+04
      7.273  0.2286E+03  0.2139E+04
      7.336  0.2737E+03  0.2157E+04
      7.398  0.2711E+03  0.2174E+04
      7.461  0.2135E+03  0.2187E+04
      7.524  0.1392E+03  0.2196E+04
      7.587  0.1063E+03  0.2203E+04
      7.650  0.1458E+03  0.2212E+04
      7.713  0.2382E+03  0.2227E+04
      7.776  0.3301E+03  0.2247E+04
      7.839  0.3746E+03  0.2271E+04
      7.902  0.3650E+03  0.2294E+04
      7.965  0.3321E+03  0.2315E+04
      8.028  0.3144E+03  0.2335E+04
      8.090  0.3347E+03  0.2356E+04
      8.153  0.3897E+03  0.2380E+04
      8.216  0.4456E+03  0.2408E+04
      8.279  0.4529E+03  0.2437E+04
      8.342  0.3917E+03  0.2461E+04
      8.405  0.2961E+03  0.2480E+04
      8.468  0.2218E+03  0.2494E+04
      8.531  0.1960E+03  0.2506E+04
      8.594  0.2073E+03  0.2519E+04
      8.657  0.2262E+03  0.2534E+04
      8.720  0.2238E+03  0.2548E+04
      8.782  0.1838E+03  0.2559E+04
      8.845  0.1152E+03  0.2566E+04
      8.908  0.4726E+02  0.2569E+04
      8.971  0.4425E+01  0.2570E+04
      9.034 -0.1043E+02  0.2569E+04
      9.097 -0.9572E+01  0.2568E+04
      9.160 -0.5008E+01  0.2568E+04
      9.223 -0.1871E+01  0.2568E+04
      9.286 -0.5319E+00  0.2568E+04
      9.349 -0.1184E+00  0.2568E+04
      9.412 -0.2093E-01  0.2568E+04
      9.474 -0.2966E-02  0.2568E+04
      9.537 -0.3389E-03  0.2568E+04
      9.600 -0.3134E-04  0.2568E+04
      9.663 -0.2352E-05  0.2568E+04
      9.726 -0.1436E-06  0.2568E+04
      9.789 -0.7146E-08  0.2568E+04
      9.852 -0.2900E-09  0.2568E+04
      9.915 -0.9622E-11  0.2568E+04
      9.978 -0.2753E-12  0.2568E+04
     10.041  0.0000E+00  0.2568E+04
     10.104  0.0000E+00  0.2568E+04
     10.166  0.0000E+00  0.2568E+04
     10.229  0.0000E+00  0.2568E+04
     10.292  0.0000E+00  0.2568E+04
     10.355  0.0000E+00  0.2568E+04
     10.418  0.0000E+00  0.2568E+04
     10.481  0.0000E+00  0.2568E+04
     10.544  0.0000E+00  0.2568E+04
     10.607  0.0000E+00  0.2568E+04
     10.670  0.0000E+00  0.2568E+04
     10.733  0.0000E+00  0.2568E+04
