<?xml version="1.0" encoding="ISO-8859-1"?>
<modeling>
 <generator>
  <i name="program" type="string">vasp </i>
  <i name="version" type="string">5.4.4.18Apr17-6-g9f103f2a35  </i>
  <i name="subversion" type="string">(build Mar 07 2019 14:32:23) complex            parallel </i>
  <i name="platform" type="string">LinuxIFC </i>
  <i name="date" type="string">2019 03 07 </i>
  <i name="time" type="string">15:48:34 </i>
 </generator>
 <incar>
  <i type="string" name="SYSTEM"> Si-big</i>
  <i type="int" name="ISTART">     0</i>
  <i type="string" name="PREC">normal</i>
  <i type="string" name="ALGO"> Normal</i>
  <i type="int" name="NSIM">     4</i>
  <i type="int" name="NELM">    40</i>
  <i type="int" name="IBRION">     2</i>
  <i name="EDIFF">      0.00000100</i>
  <i type="int" name="NSW">     0</i>
  <i type="int" name="ISIF">     0</i>
  <i type="string" name="LREAL"> A</i>
  <i type="int" name="ISMEAR">     1</i>
  <i name="SIGMA">      0.20000000</i>
  <i type="logical" name="LWAVE"> F  </i>
  <i type="logical" name="LCHARG"> F  </i>
  <v type="int" name="KPOINT_BSE">    -1     0     0     0</v>
  <i type="int" name="NELM">    40</i>
 </incar>
 <structure name="primitive_cell" >
  <crystal>
   <varray name="basis" >
    <v>      -2.71551025       0.00000000       2.71551025 </v>
    <v>       0.00000000       2.71551025       2.71551025 </v>
    <v>      -2.71551025       2.71551025       0.00000000 </v>
   </varray>
   <i name="volume">     40.04832311 </i>
   <varray name="rec_basis" >
    <v>      -0.18412746      -0.18412746       0.18412746 </v>
    <v>       0.18412746       0.18412746       0.18412746 </v>
    <v>      -0.18412746       0.18412746      -0.18412746 </v>
   </varray>
  </crystal>
  <varray name="positions" >
   <v>       0.00000000       0.00000000       0.00000000 </v>
   <v>       0.25000000       0.25000000       0.25000000 </v>
  </varray>
 </structure>
 <varray name="primitive_index" >
  <v type="int" >        1 </v>
  <v type="int" >        2 </v>
 </varray>
 <kpoints>
  <generation param="Monkhorst-Pack">
   <v type="int" name="divisions">       1        1        1 </v>
   <v name="usershift">      0.00000000       0.00000000       0.00000000 </v>
   <v name="genvec1">      1.00000000       0.00000000       0.00000000 </v>
   <v name="genvec2">      0.00000000       1.00000000       0.00000000 </v>
   <v name="genvec3">      0.00000000       0.00000000       1.00000000 </v>
   <v name="shift">      0.00000000       0.00000000       0.00000000 </v>
  </generation>
  <varray name="kpointlist" >
   <v>       0.00000000       0.00000000       0.00000000 </v>
  </varray>
  <varray name="weights" >
   <v>       1.00000000 </v>
  </varray>
 </kpoints>
 <parameters>
  <separator name="general" >
   <i type="string" name="SYSTEM">Si-big</i>
   <i type="logical" name="LCOMPAT"> F  </i>
  </separator>
  <separator name="electronic" >
   <i type="string" name="PREC">normal</i>
   <i name="ENMAX">    245.43500000</i>
   <i name="ENAUG">    322.06900000</i>
   <i name="EDIFF">      0.00000100</i>
   <i type="int" name="IALGO">    38</i>
   <i type="int" name="IWAVPR">    10</i>
   <i type="int" name="NBANDS">  1284</i>
   <i name="NELECT">   2048.00000000</i>
   <i type="int" name="TURBO">     0</i>
   <i type="int" name="IRESTART">     0</i>
   <i type="int" name="NREBOOT">     0</i>
   <i type="int" name="NMIN">     0</i>
   <i name="EREF">      0.00000000</i>
   <separator name="electronic smearing" >
    <i type="int" name="ISMEAR">     1</i>
    <i name="SIGMA">      0.20000000</i>
    <i name="KSPACING">      0.50000000</i>
    <i type="logical" name="KGAMMA"> T  </i>
   </separator>
   <separator name="electronic projectors" >
    <i type="logical" name="LREAL"> T  </i>
    <v name="ROPT">     -0.00050000</v>
    <i type="int" name="LMAXPAW">  -100</i>
    <i type="int" name="LMAXMIX">     2</i>
    <i type="logical" name="NLSPLINE"> F  </i>
   </separator>
   <separator name="electronic startup" >
    <i type="int" name="ISTART">     0</i>
    <i type="int" name="ICHARG">     2</i>
    <i type="int" name="INIWAV">     1</i>
   </separator>
   <separator name="electronic spin" >
    <i type="int" name="ISPIN">     1</i>
    <i type="logical" name="LNONCOLLINEAR"> F  </i>
    <v name="MAGMOM">      1.00000000      1.00000000      1.00000000      1.00000000      1.00000000      1.00000000      1.00000000      1.00000000      1.00000000      1.00000000      1.00000000      1.00000000      1.00000000      1.00000000      1.00000000      1.00000000      1.00000000      1.00000000      1.00000000      1.00000000
      1.00000000      1.00000000      1.00000000      1.00000000      1.00000000      1.00000000      1.00000000      1.00000000      1.00000000      1.00000000      1.00000000      1.00000000      1.00000000      1.00000000      1.00000000      1.00000000      1.00000000      1.00000000      1.00000000      1.00000000
      1.00000000      1.00000000      1.00000000      1.00000000      1.00000000      1.00000000      1.00000000      1.00000000      1.00000000      1.00000000      1.00000000      1.00000000      1.00000000      1.00000000      1.00000000      1.00000000      1.00000000      1.00000000      1.00000000      1.00000000
      1.00000000      1.00000000      1.00000000      1.00000000      1.00000000      1.00000000      1.00000000      1.00000000      1.00000000      1.00000000      1.00000000      1.00000000      1.00000000      1.00000000      1.00000000      1.00000000      1.00000000      1.00000000      1.00000000      1.00000000
      1.00000000      1.00000000      1.00000000      1.00000000      1.00000000      1.00000000      1.00000000      1.00000000      1.00000000      1.00000000      1.00000000      1.00000000      1.00000000      1.00000000      1.00000000      1.00000000      1.00000000      1.00000000      1.00000000      1.00000000
      1.00000000      1.00000000      1.00000000      1.00000000      1.00000000      1.00000000      1.00000000      1.00000000      1.00000000      1.00000000      1.00000000      1.00000000      1.00000000      1.00000000      1.00000000      1.00000000      1.00000000      1.00000000      1.00000000      1.00000000
      1.00000000      1.00000000      1.00000000      1.00000000      1.00000000      1.00000000      1.00000000      1.00000000      1.00000000      1.00000000      1.00000000      1.00000000      1.00000000      1.00000000      1.00000000      1.00000000      1.00000000      1.00000000      1.00000000      1.00000000
      1.00000000      1.00000000      1.00000000      1.00000000      1.00000000      1.00000000      1.00000000      1.00000000      1.00000000      1.00000000      1.00000000      1.00000000      1.00000000      1.00000000      1.00000000      1.00000000      1.00000000      1.00000000      1.00000000      1.00000000
      1.00000000      1.00000000      1.00000000      1.00000000      1.00000000      1.00000000      1.00000000      1.00000000      1.00000000      1.00000000      1.00000000      1.00000000      1.00000000      1.00000000      1.00000000      1.00000000      1.00000000      1.00000000      1.00000000      1.00000000
      1.00000000      1.00000000      1.00000000      1.00000000      1.00000000      1.00000000      1.00000000      1.00000000      1.00000000      1.00000000      1.00000000      1.00000000      1.00000000      1.00000000      1.00000000      1.00000000      1.00000000      1.00000000      1.00000000      1.00000000
      1.00000000      1.00000000      1.00000000      1.00000000      1.00000000      1.00000000      1.00000000      1.00000000      1.00000000      1.00000000      1.00000000      1.00000000      1.00000000      1.00000000      1.00000000      1.00000000      1.00000000      1.00000000      1.00000000      1.00000000
      1.00000000      1.00000000      1.00000000      1.00000000      1.00000000      1.00000000      1.00000000      1.00000000      1.00000000      1.00000000      1.00000000      1.00000000      1.00000000      1.00000000      1.00000000      1.00000000      1.00000000      1.00000000      1.00000000      1.00000000
      1.00000000      1.00000000      1.00000000      1.00000000      1.00000000      1.00000000      1.00000000      1.00000000      1.00000000      1.00000000      1.00000000      1.00000000      1.00000000      1.00000000      1.00000000      1.00000000      1.00000000      1.00000000      1.00000000      1.00000000
      1.00000000      1.00000000      1.00000000      1.00000000      1.00000000      1.00000000      1.00000000      1.00000000      1.00000000      1.00000000      1.00000000      1.00000000      1.00000000      1.00000000      1.00000000      1.00000000      1.00000000      1.00000000      1.00000000      1.00000000
      1.00000000      1.00000000      1.00000000      1.00000000      1.00000000      1.00000000      1.00000000      1.00000000      1.00000000      1.00000000      1.00000000      1.00000000      1.00000000      1.00000000      1.00000000      1.00000000      1.00000000      1.00000000      1.00000000      1.00000000
      1.00000000      1.00000000      1.00000000      1.00000000      1.00000000      1.00000000      1.00000000      1.00000000      1.00000000      1.00000000      1.00000000      1.00000000      1.00000000      1.00000000      1.00000000      1.00000000      1.00000000      1.00000000      1.00000000      1.00000000
      1.00000000      1.00000000      1.00000000      1.00000000      1.00000000      1.00000000      1.00000000      1.00000000      1.00000000      1.00000000      1.00000000      1.00000000      1.00000000      1.00000000      1.00000000      1.00000000      1.00000000      1.00000000      1.00000000      1.00000000
      1.00000000      1.00000000      1.00000000      1.00000000      1.00000000      1.00000000      1.00000000      1.00000000      1.00000000      1.00000000      1.00000000      1.00000000      1.00000000      1.00000000      1.00000000      1.00000000      1.00000000      1.00000000      1.00000000      1.00000000
      1.00000000      1.00000000      1.00000000      1.00000000      1.00000000      1.00000000      1.00000000      1.00000000      1.00000000      1.00000000      1.00000000      1.00000000      1.00000000      1.00000000      1.00000000      1.00000000      1.00000000      1.00000000      1.00000000      1.00000000
      1.00000000      1.00000000      1.00000000      1.00000000      1.00000000      1.00000000      1.00000000      1.00000000      1.00000000      1.00000000      1.00000000      1.00000000      1.00000000      1.00000000      1.00000000      1.00000000      1.00000000      1.00000000      1.00000000      1.00000000
      1.00000000      1.00000000      1.00000000      1.00000000      1.00000000      1.00000000      1.00000000      1.00000000      1.00000000      1.00000000      1.00000000      1.00000000      1.00000000      1.00000000      1.00000000      1.00000000      1.00000000      1.00000000      1.00000000      1.00000000
      1.00000000      1.00000000      1.00000000      1.00000000      1.00000000      1.00000000      1.00000000      1.00000000      1.00000000      1.00000000      1.00000000      1.00000000      1.00000000      1.00000000      1.00000000      1.00000000      1.00000000      1.00000000      1.00000000      1.00000000
      1.00000000      1.00000000      1.00000000      1.00000000      1.00000000      1.00000000      1.00000000      1.00000000      1.00000000      1.00000000      1.00000000      1.00000000      1.00000000      1.00000000      1.00000000      1.00000000      1.00000000      1.00000000      1.00000000      1.00000000
      1.00000000      1.00000000      1.00000000      1.00000000      1.00000000      1.00000000      1.00000000      1.00000000      1.00000000      1.00000000      1.00000000      1.00000000      1.00000000      1.00000000      1.00000000      1.00000000      1.00000000      1.00000000      1.00000000      1.00000000
      1.00000000      1.00000000      1.00000000      1.00000000      1.00000000      1.00000000      1.00000000      1.00000000      1.00000000      1.00000000      1.00000000      1.00000000      1.00000000      1.00000000      1.00000000      1.00000000      1.00000000      1.00000000      1.00000000      1.00000000
      1.00000000      1.00000000      1.00000000      1.00000000      1.00000000      1.00000000      1.00000000      1.00000000      1.00000000      1.00000000      1.00000000      1.00000000</v>
    <i name="NUPDOWN">     -1.00000000</i>
    <i type="logical" name="LSORBIT"> F  </i>
    <v name="SAXIS">      0.00000000      0.00000000      1.00000000</v>
    <i type="logical" name="LSPIRAL"> F  </i>
    <v name="QSPIRAL">      0.00000000      0.00000000      0.00000000</v>
    <i type="logical" name="LZEROZ"> F  </i>
   </separator>
   <separator name="electronic exchange-correlation" >
    <i type="logical" name="LASPH"> F  </i>
    <i type="logical" name="LMETAGGA"> F  </i>
   </separator>
   <separator name="electronic convergence" >
    <i type="int" name="NELM">    40</i>
    <i type="int" name="NELMDL">    -5</i>
    <i type="int" name="NELMIN">     2</i>
    <i name="ENINI">    245.43500000</i>
    <separator name="electronic convergence detail" >
     <i type="logical" name="LDIAG"> T  </i>
     <i type="logical" name="LSUBROT"> F  </i>
     <i name="WEIMIN">      0.00000000</i>
     <i name="EBREAK">      0.00000000</i>
     <i name="DEPER">      0.30000000</i>
     <i type="int" name="NRMM">     4</i>
     <i name="TIME">      0.40000000</i>
    </separator>
   </separator>
   <separator name="electronic mixer" >
    <i name="AMIX">      0.40000000</i>
    <i name="BMIX">      1.00000000</i>
    <i name="AMIN">      0.10000000</i>
    <i name="AMIX_MAG">      1.60000000</i>
    <i name="BMIX_MAG">      1.00000000</i>
    <separator name="electronic mixer details" >
     <i type="int" name="IMIX">     4</i>
     <i type="logical" name="MIXFIRST"> F  </i>
     <i type="int" name="MAXMIX">   -45</i>
     <i name="WC">    100.00000000</i>
     <i type="int" name="INIMIX">     1</i>
     <i type="int" name="MIXPRE">     1</i>
     <i type="int" name="MREMOVE">     5</i>
    </separator>
   </separator>
   <separator name="electronic dipolcorrection" >
    <i type="logical" name="LDIPOL"> F  </i>
    <i type="logical" name="LMONO"> F  </i>
    <i type="int" name="IDIPOL">     0</i>
    <i name="EPSILON">      1.00000000</i>
    <v name="DIPOL">   -100.00000000   -100.00000000   -100.00000000</v>
    <i name="EFIELD">      0.00000000</i>
   </separator>
  </separator>
  <separator name="grids" >
   <i type="int" name="NGX">    60</i>
   <i type="int" name="NGY">   120</i>
   <i type="int" name="NGZ">   120</i>
   <i type="int" name="NGXF">   120</i>
   <i type="int" name="NGYF">   240</i>
   <i type="int" name="NGZF">   240</i>
   <i type="logical" name="ADDGRID"> F  </i>
  </separator>
  <separator name="ionic" >
   <i type="int" name="NSW">     0</i>
   <i type="int" name="IBRION">    -1</i>
   <i type="int" name="MDALGO">     0</i>
   <i type="int" name="ISIF">     0</i>
   <i name="PSTRESS">      0.00000000</i>
   <i name="EDIFFG">      0.00001000</i>
   <i type="int" name="NFREE">     1</i>
   <i name="POTIM">      0.50000000</i>
   <i name="SMASS">     -3.00000000</i>
   <i name="SCALEE">      1.00000000</i>
  </separator>
  <separator name="ionic md" >
   <i name="TEBEG">      0.00010000</i>
   <i name="TEEND">      0.00010000</i>
   <i type="int" name="NBLOCK">     1</i>
   <i type="int" name="KBLOCK">     1</i>
   <i type="int" name="NPACO">   256</i>
   <i name="APACO">     16.00000000</i>
  </separator>
  <separator name="symmetry" >
   <i type="int" name="ISYM">     2</i>
   <i name="SYMPREC">      0.00001000</i>
  </separator>
  <separator name="dos" >
   <i type="int" name="LORBIT">     0</i>
   <v name="RWIGS">     -1.00000000</v>
   <i type="int" name="NEDOS">   301</i>
   <i name="EMIN">     10.00000000</i>
   <i name="EMAX">    -10.00000000</i>
   <i name="EFERMI">      0.00000000</i>
  </separator>
  <separator name="writing" >
   <i type="int" name="NWRITE">     2</i>
   <i type="logical" name="LWAVE"> F  </i>
   <i type="logical" name="LDOWNSAMPLE"> F  </i>
   <i type="logical" name="LCHARG"> F  </i>
   <i type="logical" name="LPARD"> F  </i>
   <i type="logical" name="LVTOT"> F  </i>
   <i type="logical" name="LVHAR"> F  </i>
   <i type="logical" name="LELF"> F  </i>
   <i type="logical" name="LOPTICS"> F  </i>
   <v name="STM">      0.00000000      0.00000000      0.00000000      0.00000000      0.00000000      0.00000000      0.00000000</v>
  </separator>
  <separator name="performance" >
   <i type="int" name="NPAR">     4</i>
   <i type="int" name="NSIM">     4</i>
   <i type="int" name="NBLK">    -1</i>
   <i type="logical" name="LPLANE"> T  </i>
   <i type="logical" name="LSCALAPACK"> F  </i>
   <i type="logical" name="LSCAAWARE"> F  </i>
   <i type="logical" name="LSCALU"> F  </i>
   <i type="logical" name="LASYNC"> F  </i>
   <i type="logical" name="LORBITALREAL"> F  </i>
  </separator>
  <separator name="miscellaneous" >
   <i type="int" name="IDIOT">     3</i>
   <i type="int" name="ISPECIAL">     0</i>
   <i type="logical" name="LMUSIC"> F  </i>
   <v name="POMASS">     28.08500000</v>
   <v name="DARWINR">      0.00000000</v>
   <v name="DARWINV">      1.00000000</v>
   <i type="logical" name="LCORR"> T  </i>
  </separator>
  <i type="logical" name="GGA_COMPAT"> T  </i>
  <i type="logical" name="LBERRY"> F  </i>
  <i type="int" name="ICORELEVEL">     0</i>
  <i type="logical" name="LDAU"> F  </i>
  <i type="int" name="I_CONSTRAINED_M">     0</i>
  <separator name="electronic exchange-correlation" >
   <i type="string" name="GGA">--</i>
   <i type="int" name="VOSKOWN">     0</i>
   <i type="logical" name="LHFCALC"> F  </i>
   <i type="string" name="PRECFOCK"></i>
   <i type="logical" name="LSYMGRAD"> F  </i>
   <i type="logical" name="LHFONE"> F  </i>
   <i type="logical" name="LRHFCALC"> F  </i>
   <i type="logical" name="LTHOMAS"> F  </i>
   <i type="logical" name="LMODELHF"> F  </i>
   <i name="ENCUT4O">     -1.00000000</i>
   <i type="int" name="EXXOEP">     0</i>
   <i type="int" name="FOURORBIT">     0</i>
   <i name="AEXX">      0.00000000</i>
   <i name="HFALPHA">      0.00000000</i>
   <i name="MCALPHA">      0.00000000</i>
   <i name="ALDAX">      1.00000000</i>
   <i name="AGGAX">      1.00000000</i>
   <i name="ALDAC">      1.00000000</i>
   <i name="AGGAC">      1.00000000</i>
   <i type="int" name="NKREDX">     1</i>
   <i type="int" name="NKREDY">     1</i>
   <i type="int" name="NKREDZ">     1</i>
   <i type="logical" name="SHIFTRED"> F  </i>
   <i type="logical" name="ODDONLY"> F  </i>
   <i type="logical" name="EVENONLY"> F  </i>
   <i type="int" name="LMAXFOCK">     0</i>
   <i type="int" name="NMAXFOCKAE">     0</i>
   <i type="logical" name="LFOCKAEDFT"> F  </i>
   <i name="HFSCREEN">      0.00000000</i>
   <i name="HFSCREENC">      0.00000000</i>
   <i type="int" name="NBANDSGWLOW">     0</i>
  </separator>
  <separator name="vdW DFT" >
   <i type="logical" name="LUSE_VDW"> F  </i>
   <i name="Zab_VDW">     -0.84910000</i>
   <i name="PARAM1">      0.12340000</i>
   <i name="PARAM2">      1.00000000</i>
   <i name="PARAM3">      0.00000000</i>
  </separator>
  <separator name="model GW" >
   <i type="int" name="MODEL_GW">     0</i>
   <i name="MODEL_EPS0">     12.01449693</i>
   <i name="MODEL_ALPHA">      1.00000000</i>
  </separator>
  <separator name="linear response parameters" >
   <i type="logical" name="LEPSILON"> F  </i>
   <i type="logical" name="LRPA"> F  </i>
   <i type="logical" name="LNABLA"> F  </i>
   <i type="logical" name="LVEL"> F  </i>
   <i type="int" name="KINTER">     0</i>
   <i name="CSHIFT">      0.10000000</i>
   <i name="OMEGAMAX">     -1.00000000</i>
   <i name="DEG_THRESHOLD">      0.00200000</i>
   <i name="RTIME">     -0.10000000</i>
   <i name="WPLASMAI">      0.00000000</i>
   <v name="DFIELD">      0.00000000      0.00000000      0.00000000</v>
   <v name="WPLASMA">      0.00000000      0.00000000      0.00000000      0.00000000      0.00000000      0.00000000      0.00000000      0.00000000      0.00000000</v>
  </separator>
  <separator name="orbital magnetization" >
   <i type="logical" name="NUCIND"> F  </i>
   <v name="MAGPOS">      0.00000000      0.00000000      0.00000000</v>
   <i type="logical" name="LNICSALL"> T  </i>
   <i type="logical" name="ORBITALMAG"> F  </i>
   <i type="logical" name="LMAGBLOCH"> F  </i>
   <i type="logical" name="LCHIMAG"> F  </i>
   <i type="logical" name="LGAUGE"> T  </i>
   <i type="int" name="MAGATOM">     0</i>
   <v name="MAGDIPOL">      0.00000000      0.00000000      0.00000000</v>
   <v name="AVECCONST">      0.00000000      0.00000000      0.00000000</v>
  </separator>
  <separator name="response functions" >
   <i type="logical" name="LADDER"> F  </i>
   <i type="logical" name="LRPAFORCE"> F  </i>
   <i type="logical" name="LFXC"> F  </i>
   <i type="logical" name="LHARTREE"> T  </i>
   <i type="int" name="IBSE">     0</i>
   <v type="int" name="KPOINT">    -1     0     0     0</v>
   <i type="logical" name="LTCTE"> F  </i>
   <i type="logical" name="LTETE"> F  </i>
   <i type="logical" name="LTRIPLET"> F  </i>
   <i type="logical" name="LFXCEPS"> F  </i>
   <i type="logical" name="LFXHEG"> F  </i>
   <i type="int" name="NATURALO">     2</i>
   <i type="logical" name="L2ORDER"> F  </i>
   <i type="logical" name="LMP2LT"> F  </i>
   <i type="logical" name="LUSEW"> F  </i>
   <i name="ENCUTGW">     -2.00000000</i>
   <i name="ENCUTGWSOFT">     -2.00000000</i>
   <i name="ENCUTLF">     -1.00000000</i>
   <i type="int" name="LMAXMP2">    -1</i>
   <i name="SCISSOR">      0.00000000</i>
   <i type="int" name="NOMEGA">     0</i>
   <i type="int" name="NOMEGAR">     0</i>
   <i type="int" name="NBANDSGW">    -1</i>
   <i type="int" name="NBANDSO">    -1</i>
   <i type="int" name="NBANDSV">    -1</i>
   <i type="int" name="NELM">    40</i>
   <i type="int" name="NELMHF">     1</i>
   <i type="int" name="DIM">     3</i>
   <i type="int" name="ANTIRES">     0</i>
   <i name="OMEGAMAX">    -30.00000000</i>
   <i name="OMEGAMIN">    -30.00000000</i>
   <i name="OMEGATL">   -200.00000000</i>
   <i type="int" name="OMEGAGRID">   140</i>
   <i name="CSHIFT">     -0.10000000</i>
   <i type="logical" name="SELFENERGY"> F  </i>
   <i type="logical" name="LSPECTRAL"> F  </i>
   <i type="logical" name="LSPECTRALGW"> F  </i>
   <i type="logical" name="LSINGLES"> F  </i>
   <i type="logical" name="LFERMIGW"> F  </i>
   <i type="logical" name="ODDONLYGW"> F  </i>
   <i type="logical" name="EVENONLYGW"> F  </i>
   <i type="int" name="NKREDLFX">     1</i>
   <i type="int" name="NKREDLFY">     1</i>
   <i type="int" name="NKREDLFZ">     1</i>
   <i type="int" name="MAXMEM">  2800</i>
   <i type="int" name="TELESCOPE">     0</i>
   <i type="int" name="TAUPAR">     1</i>
   <i type="int" name="OMEGAPAR">    -1</i>
   <i name="LAMBDA">      1.00000000</i>
  </separator>
  <separator name="External order field" >
   <i name="OFIELD_KAPPA">      0.00000000</i>
   <v name="OFIELD_K">      0.00000000      0.00000000      0.00000000</v>
   <i name="OFIELD_Q6_NEAR">      0.00000000</i>
   <i name="OFIELD_Q6_FAR">      0.00000000</i>
   <i name="OFIELD_A">      0.00000000</i>
  </separator>
 </parameters>
 <atominfo>
  <atoms>     512 </atoms>
  <types>       1 </types>
  <array name="atoms" >
   <dimension dim="1">ion</dimension>
   <field type="string">element</field>
   <field type="int">atomtype</field>
   <set>
    <rc><c>Si</c><c>   1</c></rc>
    <rc><c>Si</c><c>   1</c></rc>
    <rc><c>Si</c><c>   1</c></rc>
    <rc><c>Si</c><c>   1</c></rc>
    <rc><c>Si</c><c>   1</c></rc>
    <rc><c>Si</c><c>   1</c></rc>
    <rc><c>Si</c><c>   1</c></rc>
    <rc><c>Si</c><c>   1</c></rc>
    <rc><c>Si</c><c>   1</c></rc>
    <rc><c>Si</c><c>   1</c></rc>
    <rc><c>Si</c><c>   1</c></rc>
    <rc><c>Si</c><c>   1</c></rc>
    <rc><c>Si</c><c>   1</c></rc>
    <rc><c>Si</c><c>   1</c></rc>
    <rc><c>Si</c><c>   1</c></rc>
    <rc><c>Si</c><c>   1</c></rc>
    <rc><c>Si</c><c>   1</c></rc>
    <rc><c>Si</c><c>   1</c></rc>
    <rc><c>Si</c><c>   1</c></rc>
    <rc><c>Si</c><c>   1</c></rc>
    <rc><c>Si</c><c>   1</c></rc>
    <rc><c>Si</c><c>   1</c></rc>
    <rc><c>Si</c><c>   1</c></rc>
    <rc><c>Si</c><c>   1</c></rc>
    <rc><c>Si</c><c>   1</c></rc>
    <rc><c>Si</c><c>   1</c></rc>
    <rc><c>Si</c><c>   1</c></rc>
    <rc><c>Si</c><c>   1</c></rc>
    <rc><c>Si</c><c>   1</c></rc>
    <rc><c>Si</c><c>   1</c></rc>
    <rc><c>Si</c><c>   1</c></rc>
    <rc><c>Si</c><c>   1</c></rc>
    <rc><c>Si</c><c>   1</c></rc>
    <rc><c>Si</c><c>   1</c></rc>
    <rc><c>Si</c><c>   1</c></rc>
    <rc><c>Si</c><c>   1</c></rc>
    <rc><c>Si</c><c>   1</c></rc>
    <rc><c>Si</c><c>   1</c></rc>
    <rc><c>Si</c><c>   1</c></rc>
    <rc><c>Si</c><c>   1</c></rc>
    <rc><c>Si</c><c>   1</c></rc>
    <rc><c>Si</c><c>   1</c></rc>
    <rc><c>Si</c><c>   1</c></rc>
    <rc><c>Si</c><c>   1</c></rc>
    <rc><c>Si</c><c>   1</c></rc>
    <rc><c>Si</c><c>   1</c></rc>
    <rc><c>Si</c><c>   1</c></rc>
    <rc><c>Si</c><c>   1</c></rc>
    <rc><c>Si</c><c>   1</c></rc>
    <rc><c>Si</c><c>   1</c></rc>
    <rc><c>Si</c><c>   1</c></rc>
    <rc><c>Si</c><c>   1</c></rc>
    <rc><c>Si</c><c>   1</c></rc>
    <rc><c>Si</c><c>   1</c></rc>
    <rc><c>Si</c><c>   1</c></rc>
    <rc><c>Si</c><c>   1</c></rc>
    <rc><c>Si</c><c>   1</c></rc>
    <rc><c>Si</c><c>   1</c></rc>
    <rc><c>Si</c><c>   1</c></rc>
    <rc><c>Si</c><c>   1</c></rc>
    <rc><c>Si</c><c>   1</c></rc>
    <rc><c>Si</c><c>   1</c></rc>
    <rc><c>Si</c><c>   1</c></rc>
    <rc><c>Si</c><c>   1</c></rc>
    <rc><c>Si</c><c>   1</c></rc>
    <rc><c>Si</c><c>   1</c></rc>
    <rc><c>Si</c><c>   1</c></rc>
    <rc><c>Si</c><c>   1</c></rc>
    <rc><c>Si</c><c>   1</c></rc>
    <rc><c>Si</c><c>   1</c></rc>
    <rc><c>Si</c><c>   1</c></rc>
    <rc><c>Si</c><c>   1</c></rc>
    <rc><c>Si</c><c>   1</c></rc>
    <rc><c>Si</c><c>   1</c></rc>
    <rc><c>Si</c><c>   1</c></rc>
    <rc><c>Si</c><c>   1</c></rc>
    <rc><c>Si</c><c>   1</c></rc>
    <rc><c>Si</c><c>   1</c></rc>
    <rc><c>Si</c><c>   1</c></rc>
    <rc><c>Si</c><c>   1</c></rc>
    <rc><c>Si</c><c>   1</c></rc>
    <rc><c>Si</c><c>   1</c></rc>
    <rc><c>Si</c><c>   1</c></rc>
    <rc><c>Si</c><c>   1</c></rc>
    <rc><c>Si</c><c>   1</c></rc>
    <rc><c>Si</c><c>   1</c></rc>
    <rc><c>Si</c><c>   1</c></rc>
    <rc><c>Si</c><c>   1</c></rc>
    <rc><c>Si</c><c>   1</c></rc>
    <rc><c>Si</c><c>   1</c></rc>
    <rc><c>Si</c><c>   1</c></rc>
    <rc><c>Si</c><c>   1</c></rc>
    <rc><c>Si</c><c>   1</c></rc>
    <rc><c>Si</c><c>   1</c></rc>
    <rc><c>Si</c><c>   1</c></rc>
    <rc><c>Si</c><c>   1</c></rc>
    <rc><c>Si</c><c>   1</c></rc>
    <rc><c>Si</c><c>   1</c></rc>
    <rc><c>Si</c><c>   1</c></rc>
    <rc><c>Si</c><c>   1</c></rc>
    <rc><c>Si</c><c>   1</c></rc>
    <rc><c>Si</c><c>   1</c></rc>
    <rc><c>Si</c><c>   1</c></rc>
    <rc><c>Si</c><c>   1</c></rc>
    <rc><c>Si</c><c>   1</c></rc>
    <rc><c>Si</c><c>   1</c></rc>
    <rc><c>Si</c><c>   1</c></rc>
    <rc><c>Si</c><c>   1</c></rc>
    <rc><c>Si</c><c>   1</c></rc>
    <rc><c>Si</c><c>   1</c></rc>
    <rc><c>Si</c><c>   1</c></rc>
    <rc><c>Si</c><c>   1</c></rc>
    <rc><c>Si</c><c>   1</c></rc>
    <rc><c>Si</c><c>   1</c></rc>
    <rc><c>Si</c><c>   1</c></rc>
    <rc><c>Si</c><c>   1</c></rc>
    <rc><c>Si</c><c>   1</c></rc>
    <rc><c>Si</c><c>   1</c></rc>
    <rc><c>Si</c><c>   1</c></rc>
    <rc><c>Si</c><c>   1</c></rc>
    <rc><c>Si</c><c>   1</c></rc>
    <rc><c>Si</c><c>   1</c></rc>
    <rc><c>Si</c><c>   1</c></rc>
    <rc><c>Si</c><c>   1</c></rc>
    <rc><c>Si</c><c>   1</c></rc>
    <rc><c>Si</c><c>   1</c></rc>
    <rc><c>Si</c><c>   1</c></rc>
    <rc><c>Si</c><c>   1</c></rc>
    <rc><c>Si</c><c>   1</c></rc>
    <rc><c>Si</c><c>   1</c></rc>
    <rc><c>Si</c><c>   1</c></rc>
    <rc><c>Si</c><c>   1</c></rc>
    <rc><c>Si</c><c>   1</c></rc>
    <rc><c>Si</c><c>   1</c></rc>
    <rc><c>Si</c><c>   1</c></rc>
    <rc><c>Si</c><c>   1</c></rc>
    <rc><c>Si</c><c>   1</c></rc>
    <rc><c>Si</c><c>   1</c></rc>
    <rc><c>Si</c><c>   1</c></rc>
    <rc><c>Si</c><c>   1</c></rc>
    <rc><c>Si</c><c>   1</c></rc>
    <rc><c>Si</c><c>   1</c></rc>
    <rc><c>Si</c><c>   1</c></rc>
    <rc><c>Si</c><c>   1</c></rc>
    <rc><c>Si</c><c>   1</c></rc>
    <rc><c>Si</c><c>   1</c></rc>
    <rc><c>Si</c><c>   1</c></rc>
    <rc><c>Si</c><c>   1</c></rc>
    <rc><c>Si</c><c>   1</c></rc>
    <rc><c>Si</c><c>   1</c></rc>
    <rc><c>Si</c><c>   1</c></rc>
    <rc><c>Si</c><c>   1</c></rc>
    <rc><c>Si</c><c>   1</c></rc>
    <rc><c>Si</c><c>   1</c></rc>
    <rc><c>Si</c><c>   1</c></rc>
    <rc><c>Si</c><c>   1</c></rc>
    <rc><c>Si</c><c>   1</c></rc>
    <rc><c>Si</c><c>   1</c></rc>
    <rc><c>Si</c><c>   1</c></rc>
    <rc><c>Si</c><c>   1</c></rc>
    <rc><c>Si</c><c>   1</c></rc>
    <rc><c>Si</c><c>   1</c></rc>
    <rc><c>Si</c><c>   1</c></rc>
    <rc><c>Si</c><c>   1</c></rc>
    <rc><c>Si</c><c>   1</c></rc>
    <rc><c>Si</c><c>   1</c></rc>
    <rc><c>Si</c><c>   1</c></rc>
    <rc><c>Si</c><c>   1</c></rc>
    <rc><c>Si</c><c>   1</c></rc>
    <rc><c>Si</c><c>   1</c></rc>
    <rc><c>Si</c><c>   1</c></rc>
    <rc><c>Si</c><c>   1</c></rc>
    <rc><c>Si</c><c>   1</c></rc>
    <rc><c>Si</c><c>   1</c></rc>
    <rc><c>Si</c><c>   1</c></rc>
    <rc><c>Si</c><c>   1</c></rc>
    <rc><c>Si</c><c>   1</c></rc>
    <rc><c>Si</c><c>   1</c></rc>
    <rc><c>Si</c><c>   1</c></rc>
    <rc><c>Si</c><c>   1</c></rc>
    <rc><c>Si</c><c>   1</c></rc>
    <rc><c>Si</c><c>   1</c></rc>
    <rc><c>Si</c><c>   1</c></rc>
    <rc><c>Si</c><c>   1</c></rc>
    <rc><c>Si</c><c>   1</c></rc>
    <rc><c>Si</c><c>   1</c></rc>
    <rc><c>Si</c><c>   1</c></rc>
    <rc><c>Si</c><c>   1</c></rc>
    <rc><c>Si</c><c>   1</c></rc>
    <rc><c>Si</c><c>   1</c></rc>
    <rc><c>Si</c><c>   1</c></rc>
    <rc><c>Si</c><c>   1</c></rc>
    <rc><c>Si</c><c>   1</c></rc>
    <rc><c>Si</c><c>   1</c></rc>
    <rc><c>Si</c><c>   1</c></rc>
    <rc><c>Si</c><c>   1</c></rc>
    <rc><c>Si</c><c>   1</c></rc>
    <rc><c>Si</c><c>   1</c></rc>
    <rc><c>Si</c><c>   1</c></rc>
    <rc><c>Si</c><c>   1</c></rc>
    <rc><c>Si</c><c>   1</c></rc>
    <rc><c>Si</c><c>   1</c></rc>
    <rc><c>Si</c><c>   1</c></rc>
    <rc><c>Si</c><c>   1</c></rc>
    <rc><c>Si</c><c>   1</c></rc>
    <rc><c>Si</c><c>   1</c></rc>
    <rc><c>Si</c><c>   1</c></rc>
    <rc><c>Si</c><c>   1</c></rc>
    <rc><c>Si</c><c>   1</c></rc>
    <rc><c>Si</c><c>   1</c></rc>
    <rc><c>Si</c><c>   1</c></rc>
    <rc><c>Si</c><c>   1</c></rc>
    <rc><c>Si</c><c>   1</c></rc>
    <rc><c>Si</c><c>   1</c></rc>
    <rc><c>Si</c><c>   1</c></rc>
    <rc><c>Si</c><c>   1</c></rc>
    <rc><c>Si</c><c>   1</c></rc>
    <rc><c>Si</c><c>   1</c></rc>
    <rc><c>Si</c><c>   1</c></rc>
    <rc><c>Si</c><c>   1</c></rc>
    <rc><c>Si</c><c>   1</c></rc>
    <rc><c>Si</c><c>   1</c></rc>
    <rc><c>Si</c><c>   1</c></rc>
    <rc><c>Si</c><c>   1</c></rc>
    <rc><c>Si</c><c>   1</c></rc>
    <rc><c>Si</c><c>   1</c></rc>
    <rc><c>Si</c><c>   1</c></rc>
    <rc><c>Si</c><c>   1</c></rc>
    <rc><c>Si</c><c>   1</c></rc>
    <rc><c>Si</c><c>   1</c></rc>
    <rc><c>Si</c><c>   1</c></rc>
    <rc><c>Si</c><c>   1</c></rc>
    <rc><c>Si</c><c>   1</c></rc>
    <rc><c>Si</c><c>   1</c></rc>
    <rc><c>Si</c><c>   1</c></rc>
    <rc><c>Si</c><c>   1</c></rc>
    <rc><c>Si</c><c>   1</c></rc>
    <rc><c>Si</c><c>   1</c></rc>
    <rc><c>Si</c><c>   1</c></rc>
    <rc><c>Si</c><c>   1</c></rc>
    <rc><c>Si</c><c>   1</c></rc>
    <rc><c>Si</c><c>   1</c></rc>
    <rc><c>Si</c><c>   1</c></rc>
    <rc><c>Si</c><c>   1</c></rc>
    <rc><c>Si</c><c>   1</c></rc>
    <rc><c>Si</c><c>   1</c></rc>
    <rc><c>Si</c><c>   1</c></rc>
    <rc><c>Si</c><c>   1</c></rc>
    <rc><c>Si</c><c>   1</c></rc>
    <rc><c>Si</c><c>   1</c></rc>
    <rc><c>Si</c><c>   1</c></rc>
    <rc><c>Si</c><c>   1</c></rc>
    <rc><c>Si</c><c>   1</c></rc>
    <rc><c>Si</c><c>   1</c></rc>
    <rc><c>Si</c><c>   1</c></rc>
    <rc><c>Si</c><c>   1</c></rc>
    <rc><c>Si</c><c>   1</c></rc>
    <rc><c>Si</c><c>   1</c></rc>
    <rc><c>Si</c><c>   1</c></rc>
    <rc><c>Si</c><c>   1</c></rc>
    <rc><c>Si</c><c>   1</c></rc>
    <rc><c>Si</c><c>   1</c></rc>
    <rc><c>Si</c><c>   1</c></rc>
    <rc><c>Si</c><c>   1</c></rc>
    <rc><c>Si</c><c>   1</c></rc>
    <rc><c>Si</c><c>   1</c></rc>
    <rc><c>Si</c><c>   1</c></rc>
    <rc><c>Si</c><c>   1</c></rc>
    <rc><c>Si</c><c>   1</c></rc>
    <rc><c>Si</c><c>   1</c></rc>
    <rc><c>Si</c><c>   1</c></rc>
    <rc><c>Si</c><c>   1</c></rc>
    <rc><c>Si</c><c>   1</c></rc>
    <rc><c>Si</c><c>   1</c></rc>
    <rc><c>Si</c><c>   1</c></rc>
    <rc><c>Si</c><c>   1</c></rc>
    <rc><c>Si</c><c>   1</c></rc>
    <rc><c>Si</c><c>   1</c></rc>
    <rc><c>Si</c><c>   1</c></rc>
    <rc><c>Si</c><c>   1</c></rc>
    <rc><c>Si</c><c>   1</c></rc>
    <rc><c>Si</c><c>   1</c></rc>
    <rc><c>Si</c><c>   1</c></rc>
    <rc><c>Si</c><c>   1</c></rc>
    <rc><c>Si</c><c>   1</c></rc>
    <rc><c>Si</c><c>   1</c></rc>
    <rc><c>Si</c><c>   1</c></rc>
    <rc><c>Si</c><c>   1</c></rc>
    <rc><c>Si</c><c>   1</c></rc>
    <rc><c>Si</c><c>   1</c></rc>
    <rc><c>Si</c><c>   1</c></rc>
    <rc><c>Si</c><c>   1</c></rc>
    <rc><c>Si</c><c>   1</c></rc>
    <rc><c>Si</c><c>   1</c></rc>
    <rc><c>Si</c><c>   1</c></rc>
    <rc><c>Si</c><c>   1</c></rc>
    <rc><c>Si</c><c>   1</c></rc>
    <rc><c>Si</c><c>   1</c></rc>
    <rc><c>Si</c><c>   1</c></rc>
    <rc><c>Si</c><c>   1</c></rc>
    <rc><c>Si</c><c>   1</c></rc>
    <rc><c>Si</c><c>   1</c></rc>
    <rc><c>Si</c><c>   1</c></rc>
    <rc><c>Si</c><c>   1</c></rc>
    <rc><c>Si</c><c>   1</c></rc>
    <rc><c>Si</c><c>   1</c></rc>
    <rc><c>Si</c><c>   1</c></rc>
    <rc><c>Si</c><c>   1</c></rc>
    <rc><c>Si</c><c>   1</c></rc>
    <rc><c>Si</c><c>   1</c></rc>
    <rc><c>Si</c><c>   1</c></rc>
    <rc><c>Si</c><c>   1</c></rc>
    <rc><c>Si</c><c>   1</c></rc>
    <rc><c>Si</c><c>   1</c></rc>
    <rc><c>Si</c><c>   1</c></rc>
    <rc><c>Si</c><c>   1</c></rc>
    <rc><c>Si</c><c>   1</c></rc>
    <rc><c>Si</c><c>   1</c></rc>
    <rc><c>Si</c><c>   1</c></rc>
    <rc><c>Si</c><c>   1</c></rc>
    <rc><c>Si</c><c>   1</c></rc>
    <rc><c>Si</c><c>   1</c></rc>
    <rc><c>Si</c><c>   1</c></rc>
    <rc><c>Si</c><c>   1</c></rc>
    <rc><c>Si</c><c>   1</c></rc>
    <rc><c>Si</c><c>   1</c></rc>
    <rc><c>Si</c><c>   1</c></rc>
    <rc><c>Si</c><c>   1</c></rc>
    <rc><c>Si</c><c>   1</c></rc>
    <rc><c>Si</c><c>   1</c></rc>
    <rc><c>Si</c><c>   1</c></rc>
    <rc><c>Si</c><c>   1</c></rc>
    <rc><c>Si</c><c>   1</c></rc>
    <rc><c>Si</c><c>   1</c></rc>
    <rc><c>Si</c><c>   1</c></rc>
    <rc><c>Si</c><c>   1</c></rc>
    <rc><c>Si</c><c>   1</c></rc>
    <rc><c>Si</c><c>   1</c></rc>
    <rc><c>Si</c><c>   1</c></rc>
    <rc><c>Si</c><c>   1</c></rc>
    <rc><c>Si</c><c>   1</c></rc>
    <rc><c>Si</c><c>   1</c></rc>
    <rc><c>Si</c><c>   1</c></rc>
    <rc><c>Si</c><c>   1</c></rc>
    <rc><c>Si</c><c>   1</c></rc>
    <rc><c>Si</c><c>   1</c></rc>
    <rc><c>Si</c><c>   1</c></rc>
    <rc><c>Si</c><c>   1</c></rc>
    <rc><c>Si</c><c>   1</c></rc>
    <rc><c>Si</c><c>   1</c></rc>
    <rc><c>Si</c><c>   1</c></rc>
    <rc><c>Si</c><c>   1</c></rc>
    <rc><c>Si</c><c>   1</c></rc>
    <rc><c>Si</c><c>   1</c></rc>
    <rc><c>Si</c><c>   1</c></rc>
    <rc><c>Si</c><c>   1</c></rc>
    <rc><c>Si</c><c>   1</c></rc>
    <rc><c>Si</c><c>   1</c></rc>
    <rc><c>Si</c><c>   1</c></rc>
    <rc><c>Si</c><c>   1</c></rc>
    <rc><c>Si</c><c>   1</c></rc>
    <rc><c>Si</c><c>   1</c></rc>
    <rc><c>Si</c><c>   1</c></rc>
    <rc><c>Si</c><c>   1</c></rc>
    <rc><c>Si</c><c>   1</c></rc>
    <rc><c>Si</c><c>   1</c></rc>
    <rc><c>Si</c><c>   1</c></rc>
    <rc><c>Si</c><c>   1</c></rc>
    <rc><c>Si</c><c>   1</c></rc>
    <rc><c>Si</c><c>   1</c></rc>
    <rc><c>Si</c><c>   1</c></rc>
    <rc><c>Si</c><c>   1</c></rc>
    <rc><c>Si</c><c>   1</c></rc>
    <rc><c>Si</c><c>   1</c></rc>
    <rc><c>Si</c><c>   1</c></rc>
    <rc><c>Si</c><c>   1</c></rc>
    <rc><c>Si</c><c>   1</c></rc>
    <rc><c>Si</c><c>   1</c></rc>
    <rc><c>Si</c><c>   1</c></rc>
    <rc><c>Si</c><c>   1</c></rc>
    <rc><c>Si</c><c>   1</c></rc>
    <rc><c>Si</c><c>   1</c></rc>
    <rc><c>Si</c><c>   1</c></rc>
    <rc><c>Si</c><c>   1</c></rc>
    <rc><c>Si</c><c>   1</c></rc>
    <rc><c>Si</c><c>   1</c></rc>
    <rc><c>Si</c><c>   1</c></rc>
    <rc><c>Si</c><c>   1</c></rc>
    <rc><c>Si</c><c>   1</c></rc>
    <rc><c>Si</c><c>   1</c></rc>
    <rc><c>Si</c><c>   1</c></rc>
    <rc><c>Si</c><c>   1</c></rc>
    <rc><c>Si</c><c>   1</c></rc>
    <rc><c>Si</c><c>   1</c></rc>
    <rc><c>Si</c><c>   1</c></rc>
    <rc><c>Si</c><c>   1</c></rc>
    <rc><c>Si</c><c>   1</c></rc>
    <rc><c>Si</c><c>   1</c></rc>
    <rc><c>Si</c><c>   1</c></rc>
    <rc><c>Si</c><c>   1</c></rc>
    <rc><c>Si</c><c>   1</c></rc>
    <rc><c>Si</c><c>   1</c></rc>
    <rc><c>Si</c><c>   1</c></rc>
    <rc><c>Si</c><c>   1</c></rc>
    <rc><c>Si</c><c>   1</c></rc>
    <rc><c>Si</c><c>   1</c></rc>
    <rc><c>Si</c><c>   1</c></rc>
    <rc><c>Si</c><c>   1</c></rc>
    <rc><c>Si</c><c>   1</c></rc>
    <rc><c>Si</c><c>   1</c></rc>
    <rc><c>Si</c><c>   1</c></rc>
    <rc><c>Si</c><c>   1</c></rc>
    <rc><c>Si</c><c>   1</c></rc>
    <rc><c>Si</c><c>   1</c></rc>
    <rc><c>Si</c><c>   1</c></rc>
    <rc><c>Si</c><c>   1</c></rc>
    <rc><c>Si</c><c>   1</c></rc>
    <rc><c>Si</c><c>   1</c></rc>
    <rc><c>Si</c><c>   1</c></rc>
    <rc><c>Si</c><c>   1</c></rc>
    <rc><c>Si</c><c>   1</c></rc>
    <rc><c>Si</c><c>   1</c></rc>
    <rc><c>Si</c><c>   1</c></rc>
    <rc><c>Si</c><c>   1</c></rc>
    <rc><c>Si</c><c>   1</c></rc>
    <rc><c>Si</c><c>   1</c></rc>
    <rc><c>Si</c><c>   1</c></rc>
    <rc><c>Si</c><c>   1</c></rc>
    <rc><c>Si</c><c>   1</c></rc>
    <rc><c>Si</c><c>   1</c></rc>
    <rc><c>Si</c><c>   1</c></rc>
    <rc><c>Si</c><c>   1</c></rc>
    <rc><c>Si</c><c>   1</c></rc>
    <rc><c>Si</c><c>   1</c></rc>
    <rc><c>Si</c><c>   1</c></rc>
    <rc><c>Si</c><c>   1</c></rc>
    <rc><c>Si</c><c>   1</c></rc>
    <rc><c>Si</c><c>   1</c></rc>
    <rc><c>Si</c><c>   1</c></rc>
    <rc><c>Si</c><c>   1</c></rc>
    <rc><c>Si</c><c>   1</c></rc>
    <rc><c>Si</c><c>   1</c></rc>
    <rc><c>Si</c><c>   1</c></rc>
    <rc><c>Si</c><c>   1</c></rc>
    <rc><c>Si</c><c>   1</c></rc>
    <rc><c>Si</c><c>   1</c></rc>
    <rc><c>Si</c><c>   1</c></rc>
    <rc><c>Si</c><c>   1</c></rc>
    <rc><c>Si</c><c>   1</c></rc>
    <rc><c>Si</c><c>   1</c></rc>
    <rc><c>Si</c><c>   1</c></rc>
    <rc><c>Si</c><c>   1</c></rc>
    <rc><c>Si</c><c>   1</c></rc>
    <rc><c>Si</c><c>   1</c></rc>
    <rc><c>Si</c><c>   1</c></rc>
    <rc><c>Si</c><c>   1</c></rc>
    <rc><c>Si</c><c>   1</c></rc>
    <rc><c>Si</c><c>   1</c></rc>
    <rc><c>Si</c><c>   1</c></rc>
    <rc><c>Si</c><c>   1</c></rc>
    <rc><c>Si</c><c>   1</c></rc>
    <rc><c>Si</c><c>   1</c></rc>
    <rc><c>Si</c><c>   1</c></rc>
    <rc><c>Si</c><c>   1</c></rc>
    <rc><c>Si</c><c>   1</c></rc>
    <rc><c>Si</c><c>   1</c></rc>
    <rc><c>Si</c><c>   1</c></rc>
    <rc><c>Si</c><c>   1</c></rc>
    <rc><c>Si</c><c>   1</c></rc>
    <rc><c>Si</c><c>   1</c></rc>
    <rc><c>Si</c><c>   1</c></rc>
    <rc><c>Si</c><c>   1</c></rc>
    <rc><c>Si</c><c>   1</c></rc>
    <rc><c>Si</c><c>   1</c></rc>
    <rc><c>Si</c><c>   1</c></rc>
    <rc><c>Si</c><c>   1</c></rc>
    <rc><c>Si</c><c>   1</c></rc>
    <rc><c>Si</c><c>   1</c></rc>
    <rc><c>Si</c><c>   1</c></rc>
    <rc><c>Si</c><c>   1</c></rc>
    <rc><c>Si</c><c>   1</c></rc>
    <rc><c>Si</c><c>   1</c></rc>
    <rc><c>Si</c><c>   1</c></rc>
    <rc><c>Si</c><c>   1</c></rc>
    <rc><c>Si</c><c>   1</c></rc>
    <rc><c>Si</c><c>   1</c></rc>
    <rc><c>Si</c><c>   1</c></rc>
    <rc><c>Si</c><c>   1</c></rc>
    <rc><c>Si</c><c>   1</c></rc>
    <rc><c>Si</c><c>   1</c></rc>
    <rc><c>Si</c><c>   1</c></rc>
    <rc><c>Si</c><c>   1</c></rc>
    <rc><c>Si</c><c>   1</c></rc>
    <rc><c>Si</c><c>   1</c></rc>
    <rc><c>Si</c><c>   1</c></rc>
    <rc><c>Si</c><c>   1</c></rc>
    <rc><c>Si</c><c>   1</c></rc>
    <rc><c>Si</c><c>   1</c></rc>
    <rc><c>Si</c><c>   1</c></rc>
    <rc><c>Si</c><c>   1</c></rc>
    <rc><c>Si</c><c>   1</c></rc>
    <rc><c>Si</c><c>   1</c></rc>
    <rc><c>Si</c><c>   1</c></rc>
    <rc><c>Si</c><c>   1</c></rc>
    <rc><c>Si</c><c>   1</c></rc>
    <rc><c>Si</c><c>   1</c></rc>
    <rc><c>Si</c><c>   1</c></rc>
    <rc><c>Si</c><c>   1</c></rc>
    <rc><c>Si</c><c>   1</c></rc>
    <rc><c>Si</c><c>   1</c></rc>
    <rc><c>Si</c><c>   1</c></rc>
    <rc><c>Si</c><c>   1</c></rc>
   </set>
  </array>
  <array name="atomtypes" >
   <dimension dim="1">type</dimension>
   <field type="int">atomspertype</field>
   <field type="string">element</field>
   <field>mass</field>
   <field>valence</field>
   <field type="string">pseudopotential</field>
   <set>
    <rc><c> 512</c><c>Si</c><c>     28.08500000</c><c>      4.00000000</c><c> PAW_GGA Si 05Jan2001                   </c></rc>
   </set>
  </array>
 </atominfo>
 <structure name="initialpos" >
  <crystal>
   <varray name="basis" >
    <v>     -10.86204101       0.00000000      10.86204101 </v>
    <v>       0.00000000      21.72408202      21.72408202 </v>
    <v>     -21.72408202      21.72408202       0.00000000 </v>
   </varray>
   <i name="volume">  10252.37071549 </i>
   <varray name="rec_basis" >
    <v>      -0.04603186      -0.04603186       0.04603186 </v>
    <v>       0.02301593       0.02301593       0.02301593 </v>
    <v>      -0.02301593       0.02301593      -0.02301593 </v>
   </varray>
  </crystal>
  <varray name="positions" >
   <v>       0.00000000       0.00000000       0.00000000 </v>
   <v>       0.06250000       0.03125000       0.03125000 </v>
   <v>       0.00000000       0.00000000       0.12500000 </v>
   <v>       0.06250000       0.03125000       0.15625000 </v>
   <v>       0.00000000       0.00000000       0.25000000 </v>
   <v>       0.06250000       0.03125000       0.28125000 </v>
   <v>       0.00000000       0.00000000       0.37500000 </v>
   <v>       0.06250000       0.03125000       0.40625000 </v>
   <v>       0.00000000       0.00000000       0.50000000 </v>
   <v>       0.06250000       0.03125000       0.53125000 </v>
   <v>       0.00000000       0.00000000       0.62500000 </v>
   <v>       0.06250000       0.03125000       0.65625000 </v>
   <v>       0.00000000       0.00000000       0.75000000 </v>
   <v>       0.06250000       0.03125000       0.78125000 </v>
   <v>       0.00000000       0.00000000       0.87500000 </v>
   <v>       0.06250000       0.03125000       0.90625000 </v>
   <v>       0.00000000       0.12500000       0.00000000 </v>
   <v>       0.06250000       0.15625000       0.03125000 </v>
   <v>       0.00000000       0.12500000       0.12500000 </v>
   <v>       0.06250000       0.15625000       0.15625000 </v>
   <v>       0.00000000       0.12500000       0.25000000 </v>
   <v>       0.06250000       0.15625000       0.28125000 </v>
   <v>       0.00000000       0.12500000       0.37500000 </v>
   <v>       0.06250000       0.15625000       0.40625000 </v>
   <v>       0.00000000       0.12500000       0.50000000 </v>
   <v>       0.06250000       0.15625000       0.53125000 </v>
   <v>       0.00000000       0.12500000       0.62500000 </v>
   <v>       0.06250000       0.15625000       0.65625000 </v>
   <v>       0.00000000       0.12500000       0.75000000 </v>
   <v>       0.06250000       0.15625000       0.78125000 </v>
   <v>       0.00000000       0.12500000       0.87500000 </v>
   <v>       0.06250000       0.15625000       0.90625000 </v>
   <v>       0.00000000       0.25000000       0.00000000 </v>
   <v>       0.06250000       0.28125000       0.03125000 </v>
   <v>       0.00000000       0.25000000       0.12500000 </v>
   <v>       0.06250000       0.28125000       0.15625000 </v>
   <v>       0.00000000       0.25000000       0.25000000 </v>
   <v>       0.06250000       0.28125000       0.28125000 </v>
   <v>       0.00000000       0.25000000       0.37500000 </v>
   <v>       0.06250000       0.28125000       0.40625000 </v>
   <v>       0.00000000       0.25000000       0.50000000 </v>
   <v>       0.06250000       0.28125000       0.53125000 </v>
   <v>       0.00000000       0.25000000       0.62500000 </v>
   <v>       0.06250000       0.28125000       0.65625000 </v>
   <v>       0.00000000       0.25000000       0.75000000 </v>
   <v>       0.06250000       0.28125000       0.78125000 </v>
   <v>       0.00000000       0.25000000       0.87500000 </v>
   <v>       0.06250000       0.28125000       0.90625000 </v>
   <v>       0.00000000       0.37500000       0.00000000 </v>
   <v>       0.06250000       0.40625000       0.03125000 </v>
   <v>       0.00000000       0.37500000       0.12500000 </v>
   <v>       0.06250000       0.40625000       0.15625000 </v>
   <v>       0.00000000       0.37500000       0.25000000 </v>
   <v>       0.06250000       0.40625000       0.28125000 </v>
   <v>       0.00000000       0.37500000       0.37500000 </v>
   <v>       0.06250000       0.40625000       0.40625000 </v>
   <v>       0.00000000       0.37500000       0.50000000 </v>
   <v>       0.06250000       0.40625000       0.53125000 </v>
   <v>       0.00000000       0.37500000       0.62500000 </v>
   <v>       0.06250000       0.40625000       0.65625000 </v>
   <v>       0.00000000       0.37500000       0.75000000 </v>
   <v>       0.06250000       0.40625000       0.78125000 </v>
   <v>       0.00000000       0.37500000       0.87500000 </v>
   <v>       0.06250000       0.40625000       0.90625000 </v>
   <v>       0.00000000       0.50000000       0.00000000 </v>
   <v>       0.06250000       0.53125000       0.03125000 </v>
   <v>       0.00000000       0.50000000       0.12500000 </v>
   <v>       0.06250000       0.53125000       0.15625000 </v>
   <v>       0.00000000       0.50000000       0.25000000 </v>
   <v>       0.06250000       0.53125000       0.28125000 </v>
   <v>       0.00000000       0.50000000       0.37500000 </v>
   <v>       0.06250000       0.53125000       0.40625000 </v>
   <v>       0.00000000       0.50000000       0.50000000 </v>
   <v>       0.06250000       0.53125000       0.53125000 </v>
   <v>       0.00000000       0.50000000       0.62500000 </v>
   <v>       0.06250000       0.53125000       0.65625000 </v>
   <v>       0.00000000       0.50000000       0.75000000 </v>
   <v>       0.06250000       0.53125000       0.78125000 </v>
   <v>       0.00000000       0.50000000       0.87500000 </v>
   <v>       0.06250000       0.53125000       0.90625000 </v>
   <v>       0.00000000       0.62500000       0.00000000 </v>
   <v>       0.06250000       0.65625000       0.03125000 </v>
   <v>       0.00000000       0.62500000       0.12500000 </v>
   <v>       0.06250000       0.65625000       0.15625000 </v>
   <v>       0.00000000       0.62500000       0.25000000 </v>
   <v>       0.06250000       0.65625000       0.28125000 </v>
   <v>       0.00000000       0.62500000       0.37500000 </v>
   <v>       0.06250000       0.65625000       0.40625000 </v>
   <v>       0.00000000       0.62500000       0.50000000 </v>
   <v>       0.06250000       0.65625000       0.53125000 </v>
   <v>       0.00000000       0.62500000       0.62500000 </v>
   <v>       0.06250000       0.65625000       0.65625000 </v>
   <v>       0.00000000       0.62500000       0.75000000 </v>
   <v>       0.06250000       0.65625000       0.78125000 </v>
   <v>       0.00000000       0.62500000       0.87500000 </v>
   <v>       0.06250000       0.65625000       0.90625000 </v>
   <v>       0.00000000       0.75000000       0.00000000 </v>
   <v>       0.06250000       0.78125000       0.03125000 </v>
   <v>       0.00000000       0.75000000       0.12500000 </v>
   <v>       0.06250000       0.78125000       0.15625000 </v>
   <v>       0.00000000       0.75000000       0.25000000 </v>
   <v>       0.06250000       0.78125000       0.28125000 </v>
   <v>       0.00000000       0.75000000       0.37500000 </v>
   <v>       0.06250000       0.78125000       0.40625000 </v>
   <v>       0.00000000       0.75000000       0.50000000 </v>
   <v>       0.06250000       0.78125000       0.53125000 </v>
   <v>       0.00000000       0.75000000       0.62500000 </v>
   <v>       0.06250000       0.78125000       0.65625000 </v>
   <v>       0.00000000       0.75000000       0.75000000 </v>
   <v>       0.06250000       0.78125000       0.78125000 </v>
   <v>       0.00000000       0.75000000       0.87500000 </v>
   <v>       0.06250000       0.78125000       0.90625000 </v>
   <v>       0.00000000       0.87500000       0.00000000 </v>
   <v>       0.06250000       0.90625000       0.03125000 </v>
   <v>       0.00000000       0.87500000       0.12500000 </v>
   <v>       0.06250000       0.90625000       0.15625000 </v>
   <v>       0.00000000       0.87500000       0.25000000 </v>
   <v>       0.06250000       0.90625000       0.28125000 </v>
   <v>       0.00000000       0.87500000       0.37500000 </v>
   <v>       0.06250000       0.90625000       0.40625000 </v>
   <v>       0.00000000       0.87500000       0.50000000 </v>
   <v>       0.06250000       0.90625000       0.53125000 </v>
   <v>       0.00000000       0.87500000       0.62500000 </v>
   <v>       0.06250000       0.90625000       0.65625000 </v>
   <v>       0.00000000       0.87500000       0.75000000 </v>
   <v>       0.06250000       0.90625000       0.78125000 </v>
   <v>       0.00000000       0.87500000       0.87500000 </v>
   <v>       0.06250000       0.90625000       0.90625000 </v>
   <v>       0.25000000       0.00000000       0.00000000 </v>
   <v>       0.31250000       0.03125000       0.03125000 </v>
   <v>       0.25000000       0.00000000       0.12500000 </v>
   <v>       0.31250000       0.03125000       0.15625000 </v>
   <v>       0.25000000       0.00000000       0.25000000 </v>
   <v>       0.31250000       0.03125000       0.28125000 </v>
   <v>       0.25000000       0.00000000       0.37500000 </v>
   <v>       0.31250000       0.03125000       0.40625000 </v>
   <v>       0.25000000       0.00000000       0.50000000 </v>
   <v>       0.31250000       0.03125000       0.53125000 </v>
   <v>       0.25000000       0.00000000       0.62500000 </v>
   <v>       0.31250000       0.03125000       0.65625000 </v>
   <v>       0.25000000       0.00000000       0.75000000 </v>
   <v>       0.31250000       0.03125000       0.78125000 </v>
   <v>       0.25000000       0.00000000       0.87500000 </v>
   <v>       0.31250000       0.03125000       0.90625000 </v>
   <v>       0.25000000       0.12500000       0.00000000 </v>
   <v>       0.31250000       0.15625000       0.03125000 </v>
   <v>       0.25000000       0.12500000       0.12500000 </v>
   <v>       0.31250000       0.15625000       0.15625000 </v>
   <v>       0.25000000       0.12500000       0.25000000 </v>
   <v>       0.31250000       0.15625000       0.28125000 </v>
   <v>       0.25000000       0.12500000       0.37500000 </v>
   <v>       0.31250000       0.15625000       0.40625000 </v>
   <v>       0.25000000       0.12500000       0.50000000 </v>
   <v>       0.31250000       0.15625000       0.53125000 </v>
   <v>       0.25000000       0.12500000       0.62500000 </v>
   <v>       0.31250000       0.15625000       0.65625000 </v>
   <v>       0.25000000       0.12500000       0.75000000 </v>
   <v>       0.31250000       0.15625000       0.78125000 </v>
   <v>       0.25000000       0.12500000       0.87500000 </v>
   <v>       0.31250000       0.15625000       0.90625000 </v>
   <v>       0.25000000       0.25000000       0.00000000 </v>
   <v>       0.31250000       0.28125000       0.03125000 </v>
   <v>       0.25000000       0.25000000       0.12500000 </v>
   <v>       0.31250000       0.28125000       0.15625000 </v>
   <v>       0.25000000       0.25000000       0.25000000 </v>
   <v>       0.31250000       0.28125000       0.28125000 </v>
   <v>       0.25000000       0.25000000       0.37500000 </v>
   <v>       0.31250000       0.28125000       0.40625000 </v>
   <v>       0.25000000       0.25000000       0.50000000 </v>
   <v>       0.31250000       0.28125000       0.53125000 </v>
   <v>       0.25000000       0.25000000       0.62500000 </v>
   <v>       0.31250000       0.28125000       0.65625000 </v>
   <v>       0.25000000       0.25000000       0.75000000 </v>
   <v>       0.31250000       0.28125000       0.78125000 </v>
   <v>       0.25000000       0.25000000       0.87500000 </v>
   <v>       0.31250000       0.28125000       0.90625000 </v>
   <v>       0.25000000       0.37500000       0.00000000 </v>
   <v>       0.31250000       0.40625000       0.03125000 </v>
   <v>       0.25000000       0.37500000       0.12500000 </v>
   <v>       0.31250000       0.40625000       0.15625000 </v>
   <v>       0.25000000       0.37500000       0.25000000 </v>
   <v>       0.31250000       0.40625000       0.28125000 </v>
   <v>       0.25000000       0.37500000       0.37500000 </v>
   <v>       0.31250000       0.40625000       0.40625000 </v>
   <v>       0.25000000       0.37500000       0.50000000 </v>
   <v>       0.31250000       0.40625000       0.53125000 </v>
   <v>       0.25000000       0.37500000       0.62500000 </v>
   <v>       0.31250000       0.40625000       0.65625000 </v>
   <v>       0.25000000       0.37500000       0.75000000 </v>
   <v>       0.31250000       0.40625000       0.78125000 </v>
   <v>       0.25000000       0.37500000       0.87500000 </v>
   <v>       0.31250000       0.40625000       0.90625000 </v>
   <v>       0.25000000       0.50000000       0.00000000 </v>
   <v>       0.31250000       0.53125000       0.03125000 </v>
   <v>       0.25000000       0.50000000       0.12500000 </v>
   <v>       0.31250000       0.53125000       0.15625000 </v>
   <v>       0.25000000       0.50000000       0.25000000 </v>
   <v>       0.31250000       0.53125000       0.28125000 </v>
   <v>       0.25000000       0.50000000       0.37500000 </v>
   <v>       0.31250000       0.53125000       0.40625000 </v>
   <v>       0.25000000       0.50000000       0.50000000 </v>
   <v>       0.31250000       0.53125000       0.53125000 </v>
   <v>       0.25000000       0.50000000       0.62500000 </v>
   <v>       0.31250000       0.53125000       0.65625000 </v>
   <v>       0.25000000       0.50000000       0.75000000 </v>
   <v>       0.31250000       0.53125000       0.78125000 </v>
   <v>       0.25000000       0.50000000       0.87500000 </v>
   <v>       0.31250000       0.53125000       0.90625000 </v>
   <v>       0.25000000       0.62500000       0.00000000 </v>
   <v>       0.31250000       0.65625000       0.03125000 </v>
   <v>       0.25000000       0.62500000       0.12500000 </v>
   <v>       0.31250000       0.65625000       0.15625000 </v>
   <v>       0.25000000       0.62500000       0.25000000 </v>
   <v>       0.31250000       0.65625000       0.28125000 </v>
   <v>       0.25000000       0.62500000       0.37500000 </v>
   <v>       0.31250000       0.65625000       0.40625000 </v>
   <v>       0.25000000       0.62500000       0.50000000 </v>
   <v>       0.31250000       0.65625000       0.53125000 </v>
   <v>       0.25000000       0.62500000       0.62500000 </v>
   <v>       0.31250000       0.65625000       0.65625000 </v>
   <v>       0.25000000       0.62500000       0.75000000 </v>
   <v>       0.31250000       0.65625000       0.78125000 </v>
   <v>       0.25000000       0.62500000       0.87500000 </v>
   <v>       0.31250000       0.65625000       0.90625000 </v>
   <v>       0.25000000       0.75000000       0.00000000 </v>
   <v>       0.31250000       0.78125000       0.03125000 </v>
   <v>       0.25000000       0.75000000       0.12500000 </v>
   <v>       0.31250000       0.78125000       0.15625000 </v>
   <v>       0.25000000       0.75000000       0.25000000 </v>
   <v>       0.31250000       0.78125000       0.28125000 </v>
   <v>       0.25000000       0.75000000       0.37500000 </v>
   <v>       0.31250000       0.78125000       0.40625000 </v>
   <v>       0.25000000       0.75000000       0.50000000 </v>
   <v>       0.31250000       0.78125000       0.53125000 </v>
   <v>       0.25000000       0.75000000       0.62500000 </v>
   <v>       0.31250000       0.78125000       0.65625000 </v>
   <v>       0.25000000       0.75000000       0.75000000 </v>
   <v>       0.31250000       0.78125000       0.78125000 </v>
   <v>       0.25000000       0.75000000       0.87500000 </v>
   <v>       0.31250000       0.78125000       0.90625000 </v>
   <v>       0.25000000       0.87500000       0.00000000 </v>
   <v>       0.31250000       0.90625000       0.03125000 </v>
   <v>       0.25000000       0.87500000       0.12500000 </v>
   <v>       0.31250000       0.90625000       0.15625000 </v>
   <v>       0.25000000       0.87500000       0.25000000 </v>
   <v>       0.31250000       0.90625000       0.28125000 </v>
   <v>       0.25000000       0.87500000       0.37500000 </v>
   <v>       0.31250000       0.90625000       0.40625000 </v>
   <v>       0.25000000       0.87500000       0.50000000 </v>
   <v>       0.31250000       0.90625000       0.53125000 </v>
   <v>       0.25000000       0.87500000       0.62500000 </v>
   <v>       0.31250000       0.90625000       0.65625000 </v>
   <v>       0.25000000       0.87500000       0.75000000 </v>
   <v>       0.31250000       0.90625000       0.78125000 </v>
   <v>       0.25000000       0.87500000       0.87500000 </v>
   <v>       0.31250000       0.90625000       0.90625000 </v>
   <v>       0.50000000       0.00000000       0.00000000 </v>
   <v>       0.56250000       0.03125000       0.03125000 </v>
   <v>       0.50000000       0.00000000       0.12500000 </v>
   <v>       0.56250000       0.03125000       0.15625000 </v>
   <v>       0.50000000       0.00000000       0.25000000 </v>
   <v>       0.56250000       0.03125000       0.28125000 </v>
   <v>       0.50000000       0.00000000       0.37500000 </v>
   <v>       0.56250000       0.03125000       0.40625000 </v>
   <v>       0.50000000       0.00000000       0.50000000 </v>
   <v>       0.56250000       0.03125000       0.53125000 </v>
   <v>       0.50000000       0.00000000       0.62500000 </v>
   <v>       0.56250000       0.03125000       0.65625000 </v>
   <v>       0.50000000       0.00000000       0.75000000 </v>
   <v>       0.56250000       0.03125000       0.78125000 </v>
   <v>       0.50000000       0.00000000       0.87500000 </v>
   <v>       0.56250000       0.03125000       0.90625000 </v>
   <v>       0.50000000       0.12500000       0.00000000 </v>
   <v>       0.56250000       0.15625000       0.03125000 </v>
   <v>       0.50000000       0.12500000       0.12500000 </v>
   <v>       0.56250000       0.15625000       0.15625000 </v>
   <v>       0.50000000       0.12500000       0.25000000 </v>
   <v>       0.56250000       0.15625000       0.28125000 </v>
   <v>       0.50000000       0.12500000       0.37500000 </v>
   <v>       0.56250000       0.15625000       0.40625000 </v>
   <v>       0.50000000       0.12500000       0.50000000 </v>
   <v>       0.56250000       0.15625000       0.53125000 </v>
   <v>       0.50000000       0.12500000       0.62500000 </v>
   <v>       0.56250000       0.15625000       0.65625000 </v>
   <v>       0.50000000       0.12500000       0.75000000 </v>
   <v>       0.56250000       0.15625000       0.78125000 </v>
   <v>       0.50000000       0.12500000       0.87500000 </v>
   <v>       0.56250000       0.15625000       0.90625000 </v>
   <v>       0.50000000       0.25000000       0.00000000 </v>
   <v>       0.56250000       0.28125000       0.03125000 </v>
   <v>       0.50000000       0.25000000       0.12500000 </v>
   <v>       0.56250000       0.28125000       0.15625000 </v>
   <v>       0.50000000       0.25000000       0.25000000 </v>
   <v>       0.56250000       0.28125000       0.28125000 </v>
   <v>       0.50000000       0.25000000       0.37500000 </v>
   <v>       0.56250000       0.28125000       0.40625000 </v>
   <v>       0.50000000       0.25000000       0.50000000 </v>
   <v>       0.56250000       0.28125000       0.53125000 </v>
   <v>       0.50000000       0.25000000       0.62500000 </v>
   <v>       0.56250000       0.28125000       0.65625000 </v>
   <v>       0.50000000       0.25000000       0.75000000 </v>
   <v>       0.56250000       0.28125000       0.78125000 </v>
   <v>       0.50000000       0.25000000       0.87500000 </v>
   <v>       0.56250000       0.28125000       0.90625000 </v>
   <v>       0.50000000       0.37500000       0.00000000 </v>
   <v>       0.56250000       0.40625000       0.03125000 </v>
   <v>       0.50000000       0.37500000       0.12500000 </v>
   <v>       0.56250000       0.40625000       0.15625000 </v>
   <v>       0.50000000       0.37500000       0.25000000 </v>
   <v>       0.56250000       0.40625000       0.28125000 </v>
   <v>       0.50000000       0.37500000       0.37500000 </v>
   <v>       0.56250000       0.40625000       0.40625000 </v>
   <v>       0.50000000       0.37500000       0.50000000 </v>
   <v>       0.56250000       0.40625000       0.53125000 </v>
   <v>       0.50000000       0.37500000       0.62500000 </v>
   <v>       0.56250000       0.40625000       0.65625000 </v>
   <v>       0.50000000       0.37500000       0.75000000 </v>
   <v>       0.56250000       0.40625000       0.78125000 </v>
   <v>       0.50000000       0.37500000       0.87500000 </v>
   <v>       0.56250000       0.40625000       0.90625000 </v>
   <v>       0.50000000       0.50000000       0.00000000 </v>
   <v>       0.56250000       0.53125000       0.03125000 </v>
   <v>       0.50000000       0.50000000       0.12500000 </v>
   <v>       0.56250000       0.53125000       0.15625000 </v>
   <v>       0.50000000       0.50000000       0.25000000 </v>
   <v>       0.56250000       0.53125000       0.28125000 </v>
   <v>       0.50000000       0.50000000       0.37500000 </v>
   <v>       0.56250000       0.53125000       0.40625000 </v>
   <v>       0.50000000       0.50000000       0.50000000 </v>
   <v>       0.56250000       0.53125000       0.53125000 </v>
   <v>       0.50000000       0.50000000       0.62500000 </v>
   <v>       0.56250000       0.53125000       0.65625000 </v>
   <v>       0.50000000       0.50000000       0.75000000 </v>
   <v>       0.56250000       0.53125000       0.78125000 </v>
   <v>       0.50000000       0.50000000       0.87500000 </v>
   <v>       0.56250000       0.53125000       0.90625000 </v>
   <v>       0.50000000       0.62500000       0.00000000 </v>
   <v>       0.56250000       0.65625000       0.03125000 </v>
   <v>       0.50000000       0.62500000       0.12500000 </v>
   <v>       0.56250000       0.65625000       0.15625000 </v>
   <v>       0.50000000       0.62500000       0.25000000 </v>
   <v>       0.56250000       0.65625000       0.28125000 </v>
   <v>       0.50000000       0.62500000       0.37500000 </v>
   <v>       0.56250000       0.65625000       0.40625000 </v>
   <v>       0.50000000       0.62500000       0.50000000 </v>
   <v>       0.56250000       0.65625000       0.53125000 </v>
   <v>       0.50000000       0.62500000       0.62500000 </v>
   <v>       0.56250000       0.65625000       0.65625000 </v>
   <v>       0.50000000       0.62500000       0.75000000 </v>
   <v>       0.56250000       0.65625000       0.78125000 </v>
   <v>       0.50000000       0.62500000       0.87500000 </v>
   <v>       0.56250000       0.65625000       0.90625000 </v>
   <v>       0.50000000       0.75000000       0.00000000 </v>
   <v>       0.56250000       0.78125000       0.03125000 </v>
   <v>       0.50000000       0.75000000       0.12500000 </v>
   <v>       0.56250000       0.78125000       0.15625000 </v>
   <v>       0.50000000       0.75000000       0.25000000 </v>
   <v>       0.56250000       0.78125000       0.28125000 </v>
   <v>       0.50000000       0.75000000       0.37500000 </v>
   <v>       0.56250000       0.78125000       0.40625000 </v>
   <v>       0.50000000       0.75000000       0.50000000 </v>
   <v>       0.56250000       0.78125000       0.53125000 </v>
   <v>       0.50000000       0.75000000       0.62500000 </v>
   <v>       0.56250000       0.78125000       0.65625000 </v>
   <v>       0.50000000       0.75000000       0.75000000 </v>
   <v>       0.56250000       0.78125000       0.78125000 </v>
   <v>       0.50000000       0.75000000       0.87500000 </v>
   <v>       0.56250000       0.78125000       0.90625000 </v>
   <v>       0.50000000       0.87500000       0.00000000 </v>
   <v>       0.56250000       0.90625000       0.03125000 </v>
   <v>       0.50000000       0.87500000       0.12500000 </v>
   <v>       0.56250000       0.90625000       0.15625000 </v>
   <v>       0.50000000       0.87500000       0.25000000 </v>
   <v>       0.56250000       0.90625000       0.28125000 </v>
   <v>       0.50000000       0.87500000       0.37500000 </v>
   <v>       0.56250000       0.90625000       0.40625000 </v>
   <v>       0.50000000       0.87500000       0.50000000 </v>
   <v>       0.56250000       0.90625000       0.53125000 </v>
   <v>       0.50000000       0.87500000       0.62500000 </v>
   <v>       0.56250000       0.90625000       0.65625000 </v>
   <v>       0.50000000       0.87500000       0.75000000 </v>
   <v>       0.56250000       0.90625000       0.78125000 </v>
   <v>       0.50000000       0.87500000       0.87500000 </v>
   <v>       0.56250000       0.90625000       0.90625000 </v>
   <v>       0.75000000       0.00000000       0.00000000 </v>
   <v>       0.81250000       0.03125000       0.03125000 </v>
   <v>       0.75000000       0.00000000       0.12500000 </v>
   <v>       0.81250000       0.03125000       0.15625000 </v>
   <v>       0.75000000       0.00000000       0.25000000 </v>
   <v>       0.81250000       0.03125000       0.28125000 </v>
   <v>       0.75000000       0.00000000       0.37500000 </v>
   <v>       0.81250000       0.03125000       0.40625000 </v>
   <v>       0.75000000       0.00000000       0.50000000 </v>
   <v>       0.81250000       0.03125000       0.53125000 </v>
   <v>       0.75000000       0.00000000       0.62500000 </v>
   <v>       0.81250000       0.03125000       0.65625000 </v>
   <v>       0.75000000       0.00000000       0.75000000 </v>
   <v>       0.81250000       0.03125000       0.78125000 </v>
   <v>       0.75000000       0.00000000       0.87500000 </v>
   <v>       0.81250000       0.03125000       0.90625000 </v>
   <v>       0.75000000       0.12500000       0.00000000 </v>
   <v>       0.81250000       0.15625000       0.03125000 </v>
   <v>       0.75000000       0.12500000       0.12500000 </v>
   <v>       0.81250000       0.15625000       0.15625000 </v>
   <v>       0.75000000       0.12500000       0.25000000 </v>
   <v>       0.81250000       0.15625000       0.28125000 </v>
   <v>       0.75000000       0.12500000       0.37500000 </v>
   <v>       0.81250000       0.15625000       0.40625000 </v>
   <v>       0.75000000       0.12500000       0.50000000 </v>
   <v>       0.81250000       0.15625000       0.53125000 </v>
   <v>       0.75000000       0.12500000       0.62500000 </v>
   <v>       0.81250000       0.15625000       0.65625000 </v>
   <v>       0.75000000       0.12500000       0.75000000 </v>
   <v>       0.81250000       0.15625000       0.78125000 </v>
   <v>       0.75000000       0.12500000       0.87500000 </v>
   <v>       0.81250000       0.15625000       0.90625000 </v>
   <v>       0.75000000       0.25000000       0.00000000 </v>
   <v>       0.81250000       0.28125000       0.03125000 </v>
   <v>       0.75000000       0.25000000       0.12500000 </v>
   <v>       0.81250000       0.28125000       0.15625000 </v>
   <v>       0.75000000       0.25000000       0.25000000 </v>
   <v>       0.81250000       0.28125000       0.28125000 </v>
   <v>       0.75000000       0.25000000       0.37500000 </v>
   <v>       0.81250000       0.28125000       0.40625000 </v>
   <v>       0.75000000       0.25000000       0.50000000 </v>
   <v>       0.81250000       0.28125000       0.53125000 </v>
   <v>       0.75000000       0.25000000       0.62500000 </v>
   <v>       0.81250000       0.28125000       0.65625000 </v>
   <v>       0.75000000       0.25000000       0.75000000 </v>
   <v>       0.81250000       0.28125000       0.78125000 </v>
   <v>       0.75000000       0.25000000       0.87500000 </v>
   <v>       0.81250000       0.28125000       0.90625000 </v>
   <v>       0.75000000       0.37500000       0.00000000 </v>
   <v>       0.81250000       0.40625000       0.03125000 </v>
   <v>       0.75000000       0.37500000       0.12500000 </v>
   <v>       0.81250000       0.40625000       0.15625000 </v>
   <v>       0.75000000       0.37500000       0.25000000 </v>
   <v>       0.81250000       0.40625000       0.28125000 </v>
   <v>       0.75000000       0.37500000       0.37500000 </v>
   <v>       0.81250000       0.40625000       0.40625000 </v>
   <v>       0.75000000       0.37500000       0.50000000 </v>
   <v>       0.81250000       0.40625000       0.53125000 </v>
   <v>       0.75000000       0.37500000       0.62500000 </v>
   <v>       0.81250000       0.40625000       0.65625000 </v>
   <v>       0.75000000       0.37500000       0.75000000 </v>
   <v>       0.81250000       0.40625000       0.78125000 </v>
   <v>       0.75000000       0.37500000       0.87500000 </v>
   <v>       0.81250000       0.40625000       0.90625000 </v>
   <v>       0.75000000       0.50000000       0.00000000 </v>
   <v>       0.81250000       0.53125000       0.03125000 </v>
   <v>       0.75000000       0.50000000       0.12500000 </v>
   <v>       0.81250000       0.53125000       0.15625000 </v>
   <v>       0.75000000       0.50000000       0.25000000 </v>
   <v>       0.81250000       0.53125000       0.28125000 </v>
   <v>       0.75000000       0.50000000       0.37500000 </v>
   <v>       0.81250000       0.53125000       0.40625000 </v>
   <v>       0.75000000       0.50000000       0.50000000 </v>
   <v>       0.81250000       0.53125000       0.53125000 </v>
   <v>       0.75000000       0.50000000       0.62500000 </v>
   <v>       0.81250000       0.53125000       0.65625000 </v>
   <v>       0.75000000       0.50000000       0.75000000 </v>
   <v>       0.81250000       0.53125000       0.78125000 </v>
   <v>       0.75000000       0.50000000       0.87500000 </v>
   <v>       0.81250000       0.53125000       0.90625000 </v>
   <v>       0.75000000       0.62500000       0.00000000 </v>
   <v>       0.81250000       0.65625000       0.03125000 </v>
   <v>       0.75000000       0.62500000       0.12500000 </v>
   <v>       0.81250000       0.65625000       0.15625000 </v>
   <v>       0.75000000       0.62500000       0.25000000 </v>
   <v>       0.81250000       0.65625000       0.28125000 </v>
   <v>       0.75000000       0.62500000       0.37500000 </v>
   <v>       0.81250000       0.65625000       0.40625000 </v>
   <v>       0.75000000       0.62500000       0.50000000 </v>
   <v>       0.81250000       0.65625000       0.53125000 </v>
   <v>       0.75000000       0.62500000       0.62500000 </v>
   <v>       0.81250000       0.65625000       0.65625000 </v>
   <v>       0.75000000       0.62500000       0.75000000 </v>
   <v>       0.81250000       0.65625000       0.78125000 </v>
   <v>       0.75000000       0.62500000       0.87500000 </v>
   <v>       0.81250000       0.65625000       0.90625000 </v>
   <v>       0.75000000       0.75000000       0.00000000 </v>
   <v>       0.81250000       0.78125000       0.03125000 </v>
   <v>       0.75000000       0.75000000       0.12500000 </v>
   <v>       0.81250000       0.78125000       0.15625000 </v>
   <v>       0.75000000       0.75000000       0.25000000 </v>
   <v>       0.81250000       0.78125000       0.28125000 </v>
   <v>       0.75000000       0.75000000       0.37500000 </v>
   <v>       0.81250000       0.78125000       0.40625000 </v>
   <v>       0.75000000       0.75000000       0.50000000 </v>
   <v>       0.81250000       0.78125000       0.53125000 </v>
   <v>       0.75000000       0.75000000       0.62500000 </v>
   <v>       0.81250000       0.78125000       0.65625000 </v>
   <v>       0.75000000       0.75000000       0.75000000 </v>
   <v>       0.81250000       0.78125000       0.78125000 </v>
   <v>       0.75000000       0.75000000       0.87500000 </v>
   <v>       0.81250000       0.78125000       0.90625000 </v>
   <v>       0.75000000       0.87500000       0.00000000 </v>
   <v>       0.81250000       0.90625000       0.03125000 </v>
   <v>       0.75000000       0.87500000       0.12500000 </v>
   <v>       0.81250000       0.90625000       0.15625000 </v>
   <v>       0.75000000       0.87500000       0.25000000 </v>
   <v>       0.81250000       0.90625000       0.28125000 </v>
   <v>       0.75000000       0.87500000       0.37500000 </v>
   <v>       0.81250000       0.90625000       0.40625000 </v>
   <v>       0.75000000       0.87500000       0.50000000 </v>
   <v>       0.81250000       0.90625000       0.53125000 </v>
   <v>       0.75000000       0.87500000       0.62500000 </v>
   <v>       0.81250000       0.90625000       0.65625000 </v>
   <v>       0.75000000       0.87500000       0.75000000 </v>
   <v>       0.81250000       0.90625000       0.78125000 </v>
   <v>       0.75000000       0.87500000       0.87500000 </v>
   <v>       0.81250000       0.90625000       0.90625000 </v>
  </varray>
 </structure>
 <calculation>
  <scstep>
   <time name="dav">   16.24   16.31</time>
   <time name="total">   17.35   17.42</time>
   <energy>
    <i name="alphaZ">    829.73692598 </i>
    <i name="ewald"> -58501.31072093 </i>
    <i name="hartreedc">  -2837.27709415 </i>
    <i name="XCdc">  -4894.41582430 </i>
    <i name="pawpsdc">  17019.81016020 </i>
    <i name="pawaedc">  -7916.60169366 </i>
    <i name="eentropy">      0.06484588 </i>
    <i name="bandstr">   6738.94088480 </i>
    <i name="atom">  52890.59815955 </i>
    <i name="e_fr_energy">   3329.54564338 </i>
    <i name="e_wo_entrp">   3329.48079750 </i>
    <i name="e_0_energy">   3329.52402809 </i>
   </energy>
  </scstep>
  <scstep>
   <time name="dav">   18.18   18.19</time>
   <time name="total">   18.18   18.19</time>
   <energy>
    <i name="e_fr_energy">  -2388.23592752 </i>
    <i name="e_wo_entrp">  -2388.35112303 </i>
    <i name="e_0_energy">  -2388.27432602 </i>
   </energy>
  </scstep>
  <scstep>
   <time name="dav">   18.62   18.62</time>
   <time name="total">   18.62   18.62</time>
   <energy>
    <i name="e_fr_energy">  -2799.44839529 </i>
    <i name="e_wo_entrp">  -2799.51677669 </i>
    <i name="e_0_energy">  -2799.47118909 </i>
   </energy>
  </scstep>
  <scstep>
   <time name="dav">   19.21   19.22</time>
   <time name="total">   19.21   19.23</time>
   <energy>
    <i name="e_fr_energy">  -2810.67936951 </i>
    <i name="e_wo_entrp">  -2810.75394801 </i>
    <i name="e_0_energy">  -2810.70422901 </i>
   </energy>
  </scstep>
  <scstep>
   <time name="dav">   20.10   20.11</time>
   <time name="total">   24.91   24.92</time>
   <energy>
    <i name="e_fr_energy">  -2810.99048532 </i>
    <i name="e_wo_entrp">  -2811.06535095 </i>
    <i name="e_0_energy">  -2811.01544053 </i>
   </energy>
  </scstep>
  <scstep>
   <time name="dav">   21.46   21.46</time>
   <time name="total">   27.45   27.44</time>
   <energy>
    <i name="e_fr_energy">  -2779.66028682 </i>
    <i name="e_wo_entrp">  -2779.73031436 </i>
    <i name="e_0_energy">  -2779.68362933 </i>
   </energy>
  </scstep>
  <scstep>
   <time name="dav">   21.05   21.05</time>
   <time name="total">   27.02   27.02</time>
   <energy>
    <i name="e_fr_energy">  -2765.08398834 </i>
    <i name="e_wo_entrp">  -2765.15865363 </i>
    <i name="e_0_energy">  -2765.10887677 </i>
   </energy>
  </scstep>
  <scstep>
   <time name="dav">   22.21   22.20</time>
   <time name="total">   28.21   28.20</time>
   <energy>
    <i name="e_fr_energy">  -2765.38395967 </i>
    <i name="e_wo_entrp">  -2765.45311297 </i>
    <i name="e_0_energy">  -2765.40701077 </i>
   </energy>
  </scstep>
  <scstep>
   <time name="dav">   23.75   23.74</time>
   <time name="total">   29.62   29.61</time>
   <energy>
    <i name="e_fr_energy">  -2765.38291320 </i>
    <i name="e_wo_entrp">  -2765.45253362 </i>
    <i name="e_0_energy">  -2765.40612000 </i>
   </energy>
  </scstep>
  <scstep>
   <time name="dav">   22.38   22.38</time>
   <time name="total">   28.39   28.38</time>
   <energy>
    <i name="e_fr_energy">  -2765.38901681 </i>
    <i name="e_wo_entrp">  -2765.45829438 </i>
    <i name="e_0_energy">  -2765.41210933 </i>
   </energy>
  </scstep>
  <scstep>
   <time name="dav">   23.92   23.91</time>
   <time name="total">   29.80   29.79</time>
   <energy>
    <i name="e_fr_energy">  -2765.38903668 </i>
    <i name="e_wo_entrp">  -2765.45838702 </i>
    <i name="e_0_energy">  -2765.41215346 </i>
   </energy>
  </scstep>
  <scstep>
   <time name="dav">   23.73   23.75</time>
   <time name="total">   29.73   29.74</time>
   <energy>
    <i name="e_fr_energy">  -2765.38903605 </i>
    <i name="e_wo_entrp">  -2765.45838461 </i>
    <i name="e_0_energy">  -2765.41215224 </i>
   </energy>
  </scstep>
  <scstep>
   <time name="dav">   17.71   17.71</time>
   <time name="total">   23.72   23.71</time>
   <energy>
    <i name="e_fr_energy">  -2765.38903283 </i>
    <i name="e_wo_entrp">  -2765.45838306 </i>
    <i name="e_0_energy">  -2765.41214957 </i>
   </energy>
  </scstep>
  <scstep>
   <time name="dav">   16.30   16.30</time>
   <time name="total">   22.31   22.30</time>
   <energy>
    <i name="e_fr_energy">  -2765.38903401 </i>
    <i name="e_wo_entrp">  -2765.45838442 </i>
    <i name="e_0_energy">  -2765.41215082 </i>
   </energy>
  </scstep>
  <scstep>
   <time name="dav">   16.17   16.17</time>
   <time name="total">   17.30   17.30</time>
   <energy>
    <i name="alphaZ">    829.73692598 </i>
    <i name="ewald"> -58501.31072093 </i>
    <i name="hartreedc">  -3857.63335683 </i>
    <i name="XCdc">  -4720.12720403 </i>
    <i name="pawpsdc">  19327.52982440 </i>
    <i name="pawaedc"> -10282.97323282 </i>
    <i name="eentropy">      0.06935019 </i>
    <i name="bandstr">   1548.72122067 </i>
    <i name="atom">  52890.59815955 </i>
    <i name="e_fr_energy">  -2765.38903381 </i>
    <i name="e_wo_entrp">  -2765.45838400 </i>
    <i name="e_0_energy">  -2765.41215054 </i>
   </energy>
  </scstep>
  <structure>
   <crystal>
    <varray name="basis" >
     <v>     -10.86204101       0.00000000      10.86204101 </v>
     <v>       0.00000000      21.72408202      21.72408202 </v>
     <v>     -21.72408202      21.72408202       0.00000000 </v>
    </varray>
    <i name="volume">  10252.37071549 </i>
    <varray name="rec_basis" >
     <v>      -0.04603186      -0.04603186       0.04603186 </v>
     <v>       0.02301593       0.02301593       0.02301593 </v>
     <v>      -0.02301593       0.02301593      -0.02301593 </v>
    </varray>
   </crystal>
   <varray name="positions" >
[...]
   <v>       0.25000000       0.50000000       0.25000000 </v>
   <v>       0.31250000       0.53125000       0.28125000 </v>
   <v>       0.25000000       0.50000000       0.37500000 </v>
   <v>       0.31250000       0.53125000       0.40625000 </v>
   <v>       0.25000000       0.50000000       0.50000000 </v>
   <v>       0.31250000       0.53125000       0.53125000 </v>
   <v>       0.25000000       0.50000000       0.62500000 </v>
   <v>       0.31250000       0.53125000       0.65625000 </v>
   <v>       0.25000000       0.50000000       0.75000000 </v>
   <v>       0.31250000       0.53125000       0.78125000 </v>
   <v>       0.25000000       0.50000000       0.87500000 </v>
   <v>       0.31250000       0.53125000       0.90625000 </v>
   <v>       0.25000000       0.62500000       0.00000000 </v>
   <v>       0.31250000       0.65625000       0.03125000 </v>
   <v>       0.25000000       0.62500000       0.12500000 </v>
   <v>       0.31250000       0.65625000       0.15625000 </v>
   <v>       0.25000000       0.62500000       0.25000000 </v>
   <v>       0.31250000       0.65625000       0.28125000 </v>
   <v>       0.25000000       0.62500000       0.37500000 </v>
   <v>       0.31250000       0.65625000       0.40625000 </v>
   <v>       0.25000000       0.62500000       0.50000000 </v>
   <v>       0.31250000       0.65625000       0.53125000 </v>
   <v>       0.25000000       0.62500000       0.62500000 </v>
   <v>       0.31250000       0.65625000       0.65625000 </v>
   <v>       0.25000000       0.62500000       0.75000000 </v>
   <v>       0.31250000       0.65625000       0.78125000 </v>
   <v>       0.25000000       0.62500000       0.87500000 </v>
   <v>       0.31250000       0.65625000       0.90625000 </v>
   <v>       0.25000000       0.75000000       0.00000000 </v>
   <v>       0.31250000       0.78125000       0.03125000 </v>
   <v>       0.25000000       0.75000000       0.12500000 </v>
   <v>       0.31250000       0.78125000       0.15625000 </v>
   <v>       0.25000000       0.75000000       0.25000000 </v>
   <v>       0.31250000       0.78125000       0.28125000 </v>
   <v>       0.25000000       0.75000000       0.37500000 </v>
   <v>       0.31250000       0.78125000       0.40625000 </v>
   <v>       0.25000000       0.75000000       0.50000000 </v>
   <v>       0.31250000       0.78125000       0.53125000 </v>
   <v>       0.25000000       0.75000000       0.62500000 </v>
   <v>       0.31250000       0.78125000       0.65625000 </v>
   <v>       0.25000000       0.75000000       0.75000000 </v>
   <v>       0.31250000       0.78125000       0.78125000 </v>
   <v>       0.25000000       0.75000000       0.87500000 </v>
   <v>       0.31250000       0.78125000       0.90625000 </v>
   <v>       0.25000000       0.87500000       0.00000000 </v>
   <v>       0.31250000       0.90625000       0.03125000 </v>
   <v>       0.25000000       0.87500000       0.12500000 </v>
   <v>       0.31250000       0.90625000       0.15625000 </v>
   <v>       0.25000000       0.87500000       0.25000000 </v>
   <v>       0.31250000       0.90625000       0.28125000 </v>
   <v>       0.25000000       0.87500000       0.37500000 </v>
   <v>       0.31250000       0.90625000       0.40625000 </v>
   <v>       0.25000000       0.87500000       0.50000000 </v>
   <v>       0.31250000       0.90625000       0.53125000 </v>
   <v>       0.25000000       0.87500000       0.62500000 </v>
   <v>       0.31250000       0.90625000       0.65625000 </v>
   <v>       0.25000000       0.87500000       0.75000000 </v>
   <v>       0.31250000       0.90625000       0.78125000 </v>
   <v>       0.25000000       0.87500000       0.87500000 </v>
   <v>       0.31250000       0.90625000       0.90625000 </v>
   <v>       0.50000000       0.00000000       0.00000000 </v>
   <v>       0.56250000       0.03125000       0.03125000 </v>
   <v>       0.50000000       0.00000000       0.12500000 </v>
   <v>       0.56250000       0.03125000       0.15625000 </v>
   <v>       0.50000000       0.00000000       0.25000000 </v>
   <v>       0.56250000       0.03125000       0.28125000 </v>
   <v>       0.50000000       0.00000000       0.37500000 </v>
   <v>       0.56250000       0.03125000       0.40625000 </v>
   <v>       0.50000000       0.00000000       0.50000000 </v>
   <v>       0.56250000       0.03125000       0.53125000 </v>
   <v>       0.50000000       0.00000000       0.62500000 </v>
   <v>       0.56250000       0.03125000       0.65625000 </v>
   <v>       0.50000000       0.00000000       0.75000000 </v>
   <v>       0.56250000       0.03125000       0.78125000 </v>
   <v>       0.50000000       0.00000000       0.87500000 </v>
   <v>       0.56250000       0.03125000       0.90625000 </v>
   <v>       0.50000000       0.12500000       0.00000000 </v>
   <v>       0.56250000       0.15625000       0.03125000 </v>
   <v>       0.50000000       0.12500000       0.12500000 </v>
   <v>       0.56250000       0.15625000       0.15625000 </v>
   <v>       0.50000000       0.12500000       0.25000000 </v>
   <v>       0.56250000       0.15625000       0.28125000 </v>
   <v>       0.50000000       0.12500000       0.37500000 </v>
   <v>       0.56250000       0.15625000       0.40625000 </v>
   <v>       0.50000000       0.12500000       0.50000000 </v>
   <v>       0.56250000       0.15625000       0.53125000 </v>
   <v>       0.50000000       0.12500000       0.62500000 </v>
   <v>       0.56250000       0.15625000       0.65625000 </v>
   <v>       0.50000000       0.12500000       0.75000000 </v>
   <v>       0.56250000       0.15625000       0.78125000 </v>
   <v>       0.50000000       0.12500000       0.87500000 </v>
   <v>       0.56250000       0.15625000       0.90625000 </v>
   <v>       0.50000000       0.25000000       0.00000000 </v>
   <v>       0.56250000       0.28125000       0.03125000 </v>
   <v>       0.50000000       0.25000000       0.12500000 </v>
   <v>       0.56250000       0.28125000       0.15625000 </v>
   <v>       0.50000000       0.25000000       0.25000000 </v>
   <v>       0.56250000       0.28125000       0.28125000 </v>
   <v>       0.50000000       0.25000000       0.37500000 </v>
   <v>       0.56250000       0.28125000       0.40625000 </v>
   <v>       0.50000000       0.25000000       0.50000000 </v>
   <v>       0.56250000       0.28125000       0.53125000 </v>
   <v>       0.50000000       0.25000000       0.62500000 </v>
   <v>       0.56250000       0.28125000       0.65625000 </v>
   <v>       0.50000000       0.25000000       0.75000000 </v>
   <v>       0.56250000       0.28125000       0.78125000 </v>
   <v>       0.50000000       0.25000000       0.87500000 </v>
   <v>       0.56250000       0.28125000       0.90625000 </v>
   <v>       0.50000000       0.37500000       0.00000000 </v>
   <v>       0.56250000       0.40625000       0.03125000 </v>
   <v>       0.50000000       0.37500000       0.12500000 </v>
   <v>       0.56250000       0.40625000       0.15625000 </v>
   <v>       0.50000000       0.37500000       0.25000000 </v>
   <v>       0.56250000       0.40625000       0.28125000 </v>
   <v>       0.50000000       0.37500000       0.37500000 </v>
   <v>       0.56250000       0.40625000       0.40625000 </v>
   <v>       0.50000000       0.37500000       0.50000000 </v>
   <v>       0.56250000       0.40625000       0.53125000 </v>
   <v>       0.50000000       0.37500000       0.62500000 </v>
   <v>       0.56250000       0.40625000       0.65625000 </v>
   <v>       0.50000000       0.37500000       0.75000000 </v>
   <v>       0.56250000       0.40625000       0.78125000 </v>
   <v>       0.50000000       0.37500000       0.87500000 </v>
   <v>       0.56250000       0.40625000       0.90625000 </v>
   <v>       0.50000000       0.50000000       0.00000000 </v>
   <v>       0.56250000       0.53125000       0.03125000 </v>
   <v>       0.50000000       0.50000000       0.12500000 </v>
   <v>       0.56250000       0.53125000       0.15625000 </v>
   <v>       0.50000000       0.50000000       0.25000000 </v>
   <v>       0.56250000       0.53125000       0.28125000 </v>
   <v>       0.50000000       0.50000000       0.37500000 </v>
   <v>       0.56250000       0.53125000       0.40625000 </v>
   <v>       0.50000000       0.50000000       0.50000000 </v>
   <v>       0.56250000       0.53125000       0.53125000 </v>
   <v>       0.50000000       0.50000000       0.62500000 </v>
   <v>       0.56250000       0.53125000       0.65625000 </v>
   <v>       0.50000000       0.50000000       0.75000000 </v>
   <v>       0.56250000       0.53125000       0.78125000 </v>
   <v>       0.50000000       0.50000000       0.87500000 </v>
   <v>       0.56250000       0.53125000       0.90625000 </v>
   <v>       0.50000000       0.62500000       0.00000000 </v>
   <v>       0.56250000       0.65625000       0.03125000 </v>
   <v>       0.50000000       0.62500000       0.12500000 </v>
   <v>       0.56250000       0.65625000       0.15625000 </v>
   <v>       0.50000000       0.62500000       0.25000000 </v>
   <v>       0.56250000       0.65625000       0.28125000 </v>
   <v>       0.50000000       0.62500000       0.37500000 </v>
   <v>       0.56250000       0.65625000       0.40625000 </v>
   <v>       0.50000000       0.62500000       0.50000000 </v>
   <v>       0.56250000       0.65625000       0.53125000 </v>
   <v>       0.50000000       0.62500000       0.62500000 </v>
   <v>       0.56250000       0.65625000       0.65625000 </v>
   <v>       0.50000000       0.62500000       0.75000000 </v>
   <v>       0.56250000       0.65625000       0.78125000 </v>
   <v>       0.50000000       0.62500000       0.87500000 </v>
   <v>       0.56250000       0.65625000       0.90625000 </v>
   <v>       0.50000000       0.75000000       0.00000000 </v>
   <v>       0.56250000       0.78125000       0.03125000 </v>
   <v>       0.50000000       0.75000000       0.12500000 </v>
   <v>       0.56250000       0.78125000       0.15625000 </v>
   <v>       0.50000000       0.75000000       0.25000000 </v>
   <v>       0.56250000       0.78125000       0.28125000 </v>
   <v>       0.50000000       0.75000000       0.37500000 </v>
   <v>       0.56250000       0.78125000       0.40625000 </v>
   <v>       0.50000000       0.75000000       0.50000000 </v>
   <v>       0.56250000       0.78125000       0.53125000 </v>
   <v>       0.50000000       0.75000000       0.62500000 </v>
   <v>       0.56250000       0.78125000       0.65625000 </v>
   <v>       0.50000000       0.75000000       0.75000000 </v>
   <v>       0.56250000       0.78125000       0.78125000 </v>
   <v>       0.50000000       0.75000000       0.87500000 </v>
   <v>       0.56250000       0.78125000       0.90625000 </v>
   <v>       0.50000000       0.87500000       0.00000000 </v>
   <v>       0.56250000       0.90625000       0.03125000 </v>
   <v>       0.50000000       0.87500000       0.12500000 </v>
   <v>       0.56250000       0.90625000       0.15625000 </v>
   <v>       0.50000000       0.87500000       0.25000000 </v>
   <v>       0.56250000       0.90625000       0.28125000 </v>
   <v>       0.50000000       0.87500000       0.37500000 </v>
   <v>       0.56250000       0.90625000       0.40625000 </v>
   <v>       0.50000000       0.87500000       0.50000000 </v>
   <v>       0.56250000       0.90625000       0.53125000 </v>
   <v>       0.50000000       0.87500000       0.62500000 </v>
   <v>       0.56250000       0.90625000       0.65625000 </v>
   <v>       0.50000000       0.87500000       0.75000000 </v>
   <v>       0.56250000       0.90625000       0.78125000 </v>
   <v>       0.50000000       0.87500000       0.87500000 </v>
   <v>       0.56250000       0.90625000       0.90625000 </v>
   <v>       0.75000000       0.00000000       0.00000000 </v>
   <v>       0.81250000       0.03125000       0.03125000 </v>
   <v>       0.75000000       0.00000000       0.12500000 </v>
   <v>       0.81250000       0.03125000       0.15625000 </v>
   <v>       0.75000000       0.00000000       0.25000000 </v>
   <v>       0.81250000       0.03125000       0.28125000 </v>
   <v>       0.75000000       0.00000000       0.37500000 </v>
   <v>       0.81250000       0.03125000       0.40625000 </v>
   <v>       0.75000000       0.00000000       0.50000000 </v>
   <v>       0.81250000       0.03125000       0.53125000 </v>
   <v>       0.75000000       0.00000000       0.62500000 </v>
   <v>       0.81250000       0.03125000       0.65625000 </v>
   <v>       0.75000000       0.00000000       0.75000000 </v>
   <v>       0.81250000       0.03125000       0.78125000 </v>
   <v>       0.75000000       0.00000000       0.87500000 </v>
   <v>       0.81250000       0.03125000       0.90625000 </v>
   <v>       0.75000000       0.12500000       0.00000000 </v>
   <v>       0.81250000       0.15625000       0.03125000 </v>
   <v>       0.75000000       0.12500000       0.12500000 </v>
   <v>       0.81250000       0.15625000       0.15625000 </v>
   <v>       0.75000000       0.12500000       0.25000000 </v>
   <v>       0.81250000       0.15625000       0.28125000 </v>
   <v>       0.75000000       0.12500000       0.37500000 </v>
   <v>       0.81250000       0.15625000       0.40625000 </v>
   <v>       0.75000000       0.12500000       0.50000000 </v>
   <v>       0.81250000       0.15625000       0.53125000 </v>
   <v>       0.75000000       0.12500000       0.62500000 </v>
   <v>       0.81250000       0.15625000       0.65625000 </v>
   <v>       0.75000000       0.12500000       0.75000000 </v>
   <v>       0.81250000       0.15625000       0.78125000 </v>
   <v>       0.75000000       0.12500000       0.87500000 </v>
   <v>       0.81250000       0.15625000       0.90625000 </v>
   <v>       0.75000000       0.25000000       0.00000000 </v>
   <v>       0.81250000       0.28125000       0.03125000 </v>
   <v>       0.75000000       0.25000000       0.12500000 </v>
   <v>       0.81250000       0.28125000       0.15625000 </v>
   <v>       0.75000000       0.25000000       0.25000000 </v>
   <v>       0.81250000       0.28125000       0.28125000 </v>
   <v>       0.75000000       0.25000000       0.37500000 </v>
   <v>       0.81250000       0.28125000       0.40625000 </v>
   <v>       0.75000000       0.25000000       0.50000000 </v>
   <v>       0.81250000       0.28125000       0.53125000 </v>
   <v>       0.75000000       0.25000000       0.62500000 </v>
   <v>       0.81250000       0.28125000       0.65625000 </v>
   <v>       0.75000000       0.25000000       0.75000000 </v>
   <v>       0.81250000       0.28125000       0.78125000 </v>
   <v>       0.75000000       0.25000000       0.87500000 </v>
   <v>       0.81250000       0.28125000       0.90625000 </v>
   <v>       0.75000000       0.37500000       0.00000000 </v>
   <v>       0.81250000       0.40625000       0.03125000 </v>
   <v>       0.75000000       0.37500000       0.12500000 </v>
   <v>       0.81250000       0.40625000       0.15625000 </v>
   <v>       0.75000000       0.37500000       0.25000000 </v>
   <v>       0.81250000       0.40625000       0.28125000 </v>
   <v>       0.75000000       0.37500000       0.37500000 </v>
   <v>       0.81250000       0.40625000       0.40625000 </v>
   <v>       0.75000000       0.37500000       0.50000000 </v>
   <v>       0.81250000       0.40625000       0.53125000 </v>
   <v>       0.75000000       0.37500000       0.62500000 </v>
   <v>       0.81250000       0.40625000       0.65625000 </v>
   <v>       0.75000000       0.37500000       0.75000000 </v>
   <v>       0.81250000       0.40625000       0.78125000 </v>
   <v>       0.75000000       0.37500000       0.87500000 </v>
   <v>       0.81250000       0.40625000       0.90625000 </v>
   <v>       0.75000000       0.50000000       0.00000000 </v>
   <v>       0.81250000       0.53125000       0.03125000 </v>
   <v>       0.75000000       0.50000000       0.12500000 </v>
   <v>       0.81250000       0.53125000       0.15625000 </v>
   <v>       0.75000000       0.50000000       0.25000000 </v>
   <v>       0.81250000       0.53125000       0.28125000 </v>
   <v>       0.75000000       0.50000000       0.37500000 </v>
   <v>       0.81250000       0.53125000       0.40625000 </v>
   <v>       0.75000000       0.50000000       0.50000000 </v>
   <v>       0.81250000       0.53125000       0.53125000 </v>
   <v>       0.75000000       0.50000000       0.62500000 </v>
   <v>       0.81250000       0.53125000       0.65625000 </v>
   <v>       0.75000000       0.50000000       0.75000000 </v>
   <v>       0.81250000       0.53125000       0.78125000 </v>
   <v>       0.75000000       0.50000000       0.87500000 </v>
   <v>       0.81250000       0.53125000       0.90625000 </v>
   <v>       0.75000000       0.62500000       0.00000000 </v>
   <v>       0.81250000       0.65625000       0.03125000 </v>
   <v>       0.75000000       0.62500000       0.12500000 </v>
   <v>       0.81250000       0.65625000       0.15625000 </v>
   <v>       0.75000000       0.62500000       0.25000000 </v>
   <v>       0.81250000       0.65625000       0.28125000 </v>
   <v>       0.75000000       0.62500000       0.37500000 </v>
   <v>       0.81250000       0.65625000       0.40625000 </v>
   <v>       0.75000000       0.62500000       0.50000000 </v>
   <v>       0.81250000       0.65625000       0.53125000 </v>
   <v>       0.75000000       0.62500000       0.62500000 </v>
   <v>       0.81250000       0.65625000       0.65625000 </v>
   <v>       0.75000000       0.62500000       0.75000000 </v>
   <v>       0.81250000       0.65625000       0.78125000 </v>
   <v>       0.75000000       0.62500000       0.87500000 </v>
   <v>       0.81250000       0.65625000       0.90625000 </v>
   <v>       0.75000000       0.75000000       0.00000000 </v>
   <v>       0.81250000       0.78125000       0.03125000 </v>
   <v>       0.75000000       0.75000000       0.12500000 </v>
   <v>       0.81250000       0.78125000       0.15625000 </v>
   <v>       0.75000000       0.75000000       0.25000000 </v>
   <v>       0.81250000       0.78125000       0.28125000 </v>
   <v>       0.75000000       0.75000000       0.37500000 </v>
   <v>       0.81250000       0.78125000       0.40625000 </v>
   <v>       0.75000000       0.75000000       0.50000000 </v>
   <v>       0.81250000       0.78125000       0.53125000 </v>
   <v>       0.75000000       0.75000000       0.62500000 </v>
   <v>       0.81250000       0.78125000       0.65625000 </v>
   <v>       0.75000000       0.75000000       0.75000000 </v>
   <v>       0.81250000       0.78125000       0.78125000 </v>
   <v>       0.75000000       0.75000000       0.87500000 </v>
   <v>       0.81250000       0.78125000       0.90625000 </v>
   <v>       0.75000000       0.87500000       0.00000000 </v>
   <v>       0.81250000       0.90625000       0.03125000 </v>
   <v>       0.75000000       0.87500000       0.12500000 </v>
   <v>       0.81250000       0.90625000       0.15625000 </v>
   <v>       0.75000000       0.87500000       0.25000000 </v>
   <v>       0.81250000       0.90625000       0.28125000 </v>
   <v>       0.75000000       0.87500000       0.37500000 </v>
   <v>       0.81250000       0.90625000       0.40625000 </v>
   <v>       0.75000000       0.87500000       0.50000000 </v>
   <v>       0.81250000       0.90625000       0.53125000 </v>
   <v>       0.75000000       0.87500000       0.62500000 </v>
   <v>       0.81250000       0.90625000       0.65625000 </v>
   <v>       0.75000000       0.87500000       0.75000000 </v>
   <v>       0.81250000       0.90625000       0.78125000 </v>
   <v>       0.75000000       0.87500000       0.87500000 </v>
   <v>       0.81250000       0.90625000       0.90625000 </v>
  </varray>
 </structure>
</modeling>
